 Q-Chem 5.2, Q-Chem, Inc., Pleasanton, CA (2019)
 Q-Chem 5.2.2 for Intel X86 EM64T Linux

User input:
--------------------------------------------------------------
$molecule
0 1
O      3.6607013038      1.1428493478      3.0334543084
C      4.4903898220      1.3699581161      2.1743474040
C      3.9909418599     -1.6942749399      1.4020363567
O      5.4551908189      2.1803392020      2.1166485820
O      4.4455750364      0.6322805506      0.9476778906
C      3.4666690538     -0.3977869402      0.8059640261
Li      5.9851561117      1.6556824494      0.4252772809
H      4.1653135769     -1.5739595594      2.4723944405
H      4.9178642283     -1.9991532734      0.9133455113
H      2.5431574349     -0.0928205124      1.3004896876
H      3.2887035648     -0.5108955297     -0.2646143449
O      3.0028567481     -2.7245525605      1.2852413086
C      2.9365659812     -3.3956137796      0.1154141022
O      2.0435379315     -4.2776115993      0.0342681368
O      3.7415850613     -3.1352998459     -0.8198812742
Li      2.7727714664     -4.5213211254     -1.7012534167
$end

$rem
job_type = freq
basis = def2-tzvppd
max_scf_cycles = 200
gen_scfman = true
xc_grid = 3
scf_algorithm = diis
resp_charges = true
symmetry = false
sym_ignore = true
method = wb97xv
geom_opt_max_cycles = 200
solvent_method = smd
ideriv = 1
thresh = 14
$end

$smx
solvent other
$end
--------------------------------------------------------------

   14    -621.5019629839      6.01e-09  Convergence criterion met
 Total energy in the final basis set =     -621.5075399838
   12    -621.5019612657      4.80e-09  Convergence criterion met
 Total energy in the final basis set =     -621.5075392661
   12    -621.5019632862      4.95e-09  Convergence criterion met
 Total energy in the final basis set =     -621.5075392820
   12    -621.5019608495      4.85e-09  Convergence criterion met
 Total energy in the final basis set =     -621.5075397806
   12    -621.5019647671      4.89e-09  Convergence criterion met
 Total energy in the final basis set =     -621.5075398352
   12    -621.5019615420      4.95e-09  Convergence criterion met
 Total energy in the final basis set =     -621.5075391674
   12    -621.5019628725      4.79e-09  Convergence criterion met
 Total energy in the final basis set =     -621.5075392409
   12    -621.5019614601      4.94e-09  Convergence criterion met
 Total energy in the final basis set =     -621.5075394166
   12    -621.5019624177      4.81e-09  Convergence criterion met
 Total energy in the final basis set =     -621.5075392058
   12    -621.5019628205      4.90e-09  Convergence criterion met
 Total energy in the final basis set =     -621.5075398306
   12    -621.5019630941      4.87e-09  Convergence criterion met
 Total energy in the final basis set =     -621.5075400839
   12    -621.5019628447      4.89e-09  Convergence criterion met
 Total energy in the final basis set =     -621.5075398766
   12    -621.5019630290      4.86e-09  Convergence criterion met
 Total energy in the final basis set =     -621.5075399973
   12    -621.5019628840      4.89e-09  Convergence criterion met
 Total energy in the final basis set =     -621.5075399350
   12    -621.5019628885      4.87e-09  Convergence criterion met
 Total energy in the final basis set =     -621.5075398377

                    Orbital Energies (a.u.)
 --------------------------------------------------------------

 Alpha MOs
 -- Occupied --
-19.2477 -19.2459 -19.1797 -19.1751 -19.1749 -19.1712 -10.4168 -10.4099
-10.3165 -10.3152  -2.1055  -2.0989  -1.2435  -1.2324  -1.1461  -1.1339
 -1.1058  -1.0956  -0.8873  -0.7861  -0.6764  -0.6737  -0.6189  -0.6002
 -0.5964  -0.5920  -0.5756  -0.5626  -0.5411  -0.5161  -0.5060  -0.4836
 -0.4458  -0.4290  -0.4233  -0.4049  -0.3905  -0.3841  -0.3816  -0.3755
 -0.3716

          Ground-State Mulliken Net Atomic Charges

     Atom                 Charge (a.u.)
  ----------------------------------------
      1 O                    -0.539944
      2 C                     0.645298
      3 C                     0.104199
      4 O                    -0.768404
      5 O                    -0.413858
      6 C                     0.040818
      7 Li                    0.887488
      8 H                     0.037945
      9 H                     0.082551
     10 H                     0.096320
     11 H                     0.041091
     12 O                    -0.244610
     13 C                     0.749876
     14 O                    -0.792086
     15 O                    -0.801246
     16 Li                    0.874563
  ----------------------------------------
  Sum of atomic charges =     0.000000

                    Cartesian Multipole Moments
 -----------------------------------------------------------------
    Charge (ESU x 10^10)
                -0.0000
    Dipole Moment (Debye)
         X       4.7950      Y      -3.0634      Z     -12.7697
       Tot      13.9801
    Quadrupole Moments (Debye-Ang)
        XX     -17.4746     XY     -10.2021     YY     -48.6011
        XZ     -43.5881     YZ       9.9176     ZZ     -76.4467

             Standard Nuclear Orientation (Angstroms)
    I     Atom           X                Y                Z
 ----------------------------------------------------------------
    1      O       3.6607013038     1.1428493478     3.0334543084
    2      C       4.4903898220     1.3699581161     2.1743474040
    3      C       3.9909418599    -1.6942749399     1.4020363567
    4      O       5.4551908189     2.1803392020     2.1166485820
    5      O       4.4455750364     0.6322805506     0.9476778906
    6      C       3.4666690538    -0.3977869402     0.8059640261
    7      Li      5.9851561117     1.6556824494     0.4252772809
    8      H       4.1653135769    -1.5739595594     2.4723944405
    9      H       4.9178642283    -1.9991532734     0.9133455113
   10      H       2.5431574349    -0.0928205124     1.3004896876
   11      H       3.2887035648    -0.5108955297    -0.2646143449
   12      O       3.0028567481    -2.7245525605     1.2852413086
   13      C       2.9365659812    -3.3956137796     0.1154141022
   14      O       2.0435379315    -4.2776115993     0.0342681368
   15      O       3.7415850613    -3.1352998459    -0.8198812742
   16      Li      2.7727714664    -4.5213211254    -1.7012534167
 ----------------------------------------------------------------

 Frequency:        28.04                  45.81                  53.53
 Force Cnst:      0.0035                 0.0105                 0.0140
 Red. Mass:       7.5359                 8.5286                 8.3064
 IR Intens:        4.149                 10.987                  6.186
 Frequency:        78.45                  87.42                 133.32
 Force Cnst:      0.0194                 0.0481                 0.1053
 Red. Mass:       5.3432                10.6875                10.0588
 IR Intens:       15.649                  4.184                 98.646
 Frequency:       143.80                 272.85                 283.77
 Force Cnst:      0.1076                 0.1242                 0.2572
 Red. Mass:       8.8341                 2.8315                 5.4204
 IR Intens:       52.849                 58.321                 29.664
 Frequency:       304.57                 319.35                 387.03
 Force Cnst:      0.3117                 0.3106                 0.5860
 Red. Mass:       5.7035                 5.1692                 6.6396
 IR Intens:       31.686                 14.701                  0.829
 Frequency:       421.78                 518.56                 532.41
 Force Cnst:      0.8766                 1.2086                 1.2155
 Red. Mass:       8.3629                 7.6284                 7.2783
 IR Intens:       46.176                237.940                127.886
 Frequency:       631.83                 662.12                 706.38
 Force Cnst:      1.9841                 1.2841                 1.7984
 Red. Mass:       8.4357                 4.9713                 6.1171
 IR Intens:       86.136                 20.838                  7.132
 Frequency:       715.81                 800.78                 820.51
 Force Cnst:      1.5345                 0.5471                 4.7175
 Red. Mass:       5.0831                 1.4480                11.8930
 IR Intens:       22.810                 38.674                 39.775
 Frequency:       841.08                 861.70                 980.85
 Force Cnst:      5.1161                 2.9862                 3.9067
 Red. Mass:      12.2750                 6.8258                 6.8922
 IR Intens:       42.994                365.982                 18.586
 Frequency:      1085.40                1125.83                1147.98
 Force Cnst:      3.1628                 5.4552                 3.3307
 Red. Mass:       4.5565                 7.3050                 4.2896
 IR Intens:       23.185                593.770                 37.579
 Frequency:      1183.70                1291.78                1306.54
 Force Cnst:      1.9018                 1.3587                 4.0325
 Red. Mass:       2.3038                 1.3819                 4.0093
 IR Intens:       25.479                187.103                320.914
 Frequency:      1340.60                1361.67                1420.00
 Force Cnst:      1.1321                 1.6717                 2.8423
 Red. Mass:       1.0692                 1.5303                 2.3925
 IR Intens:        1.005                 43.162                504.465
 Frequency:      1462.08                1487.39                1502.84
 Force Cnst:      1.9001                 1.5082                 1.7512
 Red. Mass:       1.5087                 1.1570                 1.3160
 IR Intens:       58.786                 19.021                183.783
 Frequency:      1638.22                1806.70                3098.78
 Force Cnst:     18.7907                23.9073                 5.9922
 Red. Mass:      11.8836                12.4311                 1.0591
 IR Intens:      905.460                943.269                  1.651
 Frequency:      3105.02                3150.48                3170.07
 Force Cnst:      6.0070                 6.4801                 6.5792
 Red. Mass:       1.0575                 1.1081                 1.1112
 IR Intens:       67.202                  0.360                 18.793

 STANDARD THERMODYNAMIC QUANTITIES AT   298.15 K  AND     1.00 ATM

   This Molecule has  0 Imaginary Frequencies
   Zero point vibrational energy:       60.495 kcal/mol

   Atom    1 Element O  Has Mass   15.99491
   Atom    2 Element C  Has Mass   12.00000
   Atom    3 Element C  Has Mass   12.00000
   Atom    4 Element O  Has Mass   15.99491
   Atom    5 Element O  Has Mass   15.99491
   Atom    6 Element C  Has Mass   12.00000
   Atom    7 Element Li Has Mass    7.01600
   Atom    8 Element H  Has Mass    1.00783
   Atom    9 Element H  Has Mass    1.00783
   Atom   10 Element H  Has Mass    1.00783
   Atom   11 Element H  Has Mass    1.00783
   Atom   12 Element O  Has Mass   15.99491
   Atom   13 Element C  Has Mass   12.00000
   Atom   14 Element O  Has Mass   15.99491
   Atom   15 Element O  Has Mass   15.99491
   Atom   16 Element Li Has Mass    7.01600
   Molecular Mass:   162.032780 amu
   Principal axes and moments of inertia in amu*Bohr^2:
                             1           2           3
    Eigenvalues --      541.10253  4063.73833  4440.04998
          X               0.32354    -0.56405     0.75972
          Y               0.87179    -0.13443    -0.47108
          Z               0.36784     0.81473     0.44823
   Rotational Symmetry Number is   1
   The Molecule is an Asymmetric Top
   Translational Enthalpy:        0.889 kcal/mol
   Rotational Enthalpy:           0.889 kcal/mol
   Vibrational Enthalpy:         66.211 kcal/mol
   gas constant (RT):             0.592 kcal/mol
   Translational Entropy:        41.156  cal/mol.K
   Rotational Entropy:           30.657  cal/mol.K
   Vibrational Entropy:          40.376  cal/mol.K

   Total Enthalpy:               68.581 kcal/mol
   Total Entropy:               112.190  cal/mol.K

 Total job time:  20802.03s(wall), 528651.92s(cpu)
        *  Thank you very much for using Q-Chem.  Have a nice day.  *
