 Q-Chem 5.2, Q-Chem, Inc., Pleasanton, CA (2019)
 Q-Chem 5.2.2 for Intel X86 EM64T Linux

User input:
--------------------------------------------------------------
$molecule
0 2
C     -1.4420923595     -0.5490305962     -0.1388241651
C     -0.8377017028      0.4808589429      0.8124631109
O      0.4828792820      0.8770973032      0.3937281721
C      1.5277216412      0.1508962914      0.8237056071
O      1.3696503425     -0.8003252885      1.6391180705
O      2.6595070760      0.4858599422      0.3765178145
O     -2.7121913049     -0.8915817696      0.2498428783
Li      3.2546283440     -0.9377606300      1.4665951572
H     -0.7628976723     -1.4225146009     -0.1627040939
H     -1.4178060798     -0.1156767146     -1.1576999279
H     -0.8043459288      0.0895702672      1.8305212206
H     -1.4319721409      1.3980076506      0.7964617520
H     -4.6029084738      1.0652143737      0.3002994282
Li     -4.2622810228     -1.1254251714      0.7395649756
$end

$rem
job_type = freq
basis = def2-tzvppd
max_scf_cycles = 200
gen_scfman = true
xc_grid = 3
scf_algorithm = diis
resp_charges = true
symmetry = false
sym_ignore = true
method = wb97xv
solvent_method = smd
ideriv = 1
thresh = 14
$end

$smx
solvent other
$end
--------------------------------------------------------------

   16    -433.3569199892      6.71e-09  Convergence criterion met
 Total energy in the final basis set =     -433.3605250211
   13    -433.3569192778      4.93e-09  Convergence criterion met
 Total energy in the final basis set =     -433.3605240994
   13    -433.3569188654      5.68e-09  Convergence criterion met
 Total energy in the final basis set =     -433.3605240973
   13    -433.3569173650      4.93e-09  Convergence criterion met
 Total energy in the final basis set =     -433.3605240804
   13    -433.3569207444      5.28e-09  Convergence criterion met
 Total energy in the final basis set =     -433.3605240852
   13    -433.3569166973      5.21e-09  Convergence criterion met
 Total energy in the final basis set =     -433.3605240752
   13    -433.3569213714      5.13e-09  Convergence criterion met
 Total energy in the final basis set =     -433.3605240504
   13    -433.3569188743      5.15e-09  Convergence criterion met
 Total energy in the final basis set =     -433.3605250083
   13    -433.3569200689      5.21e-09  Convergence criterion met
 Total energy in the final basis set =     -433.3605250323
   13    -433.3569204248      5.32e-09  Convergence criterion met
 Total energy in the final basis set =     -433.3605248455
   13    -433.3569191651      4.95e-09  Convergence criterion met
 Total energy in the final basis set =     -433.3605248079
   13    -433.3569197421      5.33e-09  Convergence criterion met
 Total energy in the final basis set =     -433.3605250021
   13    -433.3569202116      5.15e-09  Convergence criterion met
 Total energy in the final basis set =     -433.3605250157
   13    -433.3569198702      5.19e-09  Convergence criterion met
 Total energy in the final basis set =     -433.3605250172
   13    -433.3569200650      5.25e-09  Convergence criterion met
 Total energy in the final basis set =     -433.3605249820

                    Orbital Energies (a.u.)
 --------------------------------------------------------------

 Alpha MOs
 -- Occupied --
-19.2338 -19.1716 -19.1675 -19.1209 -10.4088 -10.2939 -10.2782  -2.0923
 -2.0800  -1.2328  -1.1342  -1.0861  -1.0507  -0.8441  -0.7214  -0.6568
 -0.5934  -0.5884  -0.5728  -0.5400  -0.5027  -0.4977  -0.4761  -0.4390
 -0.4252  -0.4150  -0.4004  -0.3774  -0.3689  -0.3178  -0.3144

 Beta MOs
 -- Occupied --
-19.2338 -19.1716 -19.1675 -19.1195 -10.4088 -10.2939 -10.2783  -2.0923
 -2.0799  -1.2328  -1.1342  -1.0861  -1.0477  -0.8437  -0.7207  -0.6568
 -0.5933  -0.5883  -0.5726  -0.5392  -0.5005  -0.4973  -0.4752  -0.4366
 -0.4149  -0.4006  -0.3773  -0.3689  -0.3165  -0.3132

          Ground-State Mulliken Net Atomic Charges

     Atom                 Charge (a.u.)    Spin (a.u.)
  --------------------------------------------------------
      1 C                    -0.045365      -0.008262
      2 C                     0.249763       0.004331
      3 O                    -0.259170      -0.000878
      4 C                     0.745209      -0.000988
      5 O                    -0.802134       0.000136
      6 O                    -0.802349       0.000158
      7 O                    -0.861858       0.011779
      8 Li                    0.870714       0.000090
      9 H                     0.025638       0.005779
     10 H                     0.027320      -0.001978
     11 H                     0.054733      -0.002365
     12 H                    -0.020162      -0.001543
     13 H                     0.010302       0.935297
     14 Li                    0.807360       0.058444
  --------------------------------------------------------
  Sum of atomic charges =     0.000000

                    Cartesian Multipole Moments
 -----------------------------------------------------------------
    Charge (ESU x 10^10)
                 0.0000
    Dipole Moment (Debye)
         X      -3.4223      Y      -4.3038      Z       3.8203
       Tot       6.6955
    Quadrupole Moments (Debye-Ang)
        XX      12.8678     XY      -5.1878     YY     -45.0157
        XZ       2.2041     YZ      -3.8466     ZZ     -42.8599

             Standard Nuclear Orientation (Angstroms)
    I     Atom           X                Y                Z
 ----------------------------------------------------------------
    1      C      -1.4420923595    -0.5490305962    -0.1388241651
    2      C      -0.8377017028     0.4808589429     0.8124631109
    3      O       0.4828792820     0.8770973032     0.3937281721
    4      C       1.5277216412     0.1508962914     0.8237056071
    5      O       1.3696503425    -0.8003252885     1.6391180705
    6      O       2.6595070760     0.4858599422     0.3765178145
    7      O      -2.7121913049    -0.8915817696     0.2498428783
    8      Li      3.2546283440    -0.9377606300     1.4665951572
    9      H      -0.7628976723    -1.4225146009    -0.1627040939
   10      H      -1.4178060798    -0.1156767146    -1.1576999279
   11      H      -0.8043459288     0.0895702672     1.8305212206
   12      H      -1.4319721409     1.3980076506     0.7964617520
   13      H      -4.6029084738     1.0652143737     0.3002994282
   14      Li     -4.2622810228    -1.1254251714     0.7395649756
 ----------------------------------------------------------------

 Frequency:      -204.83                  54.41                  57.88
 Force Cnst:      0.0261                 0.0077                 0.0070
 Red. Mass:       1.0571                 4.4015                 3.5292
 IR Intens:      121.522                 51.923                 58.037
 Frequency:        75.36                  84.63                  98.58
 Force Cnst:      0.0108                 0.0135                 0.0100
 Red. Mass:       3.2210                 3.1989                 1.7534
 IR Intens:       27.164                  0.389                 16.179
 Frequency:       138.78                 151.89                 245.92
 Force Cnst:      0.0506                 0.0499                 0.0456
 Red. Mass:       4.4626                 3.6682                 1.2794
 IR Intens:       83.653                 68.133                 35.384
 Frequency:       288.77                 325.96                 367.84
 Force Cnst:      0.1880                 0.3120                 0.5935
 Red. Mass:       3.8274                 4.9835                 7.4450
 IR Intens:       48.522                 35.031                 38.017
 Frequency:       433.60                 539.94                 652.98
 Force Cnst:      0.8887                 1.2195                 1.7824
 Red. Mass:       8.0228                 7.0998                 7.0951
 IR Intens:       11.813                222.498                 33.607
 Frequency:       716.45                 755.43                 801.81
 Force Cnst:      1.4478                 1.9142                 0.4803
 Red. Mass:       4.7873                 5.6929                 1.2679
 IR Intens:       26.202                132.157                  2.703
 Frequency:       842.63                 976.38                1074.38
 Force Cnst:      5.1923                 3.8725                 2.6382
 Red. Mass:      12.4118                 6.8945                 3.8792
 IR Intens:       40.249                 17.371                 42.832
 Frequency:      1133.07                1174.28                1237.80
 Force Cnst:      3.6465                 1.6116                 7.2068
 Red. Mass:       4.8208                 1.9836                 7.9835
 IR Intens:      145.620                 32.238                512.596
 Frequency:      1265.51                1316.45                1342.86
 Force Cnst:      1.1546                 1.1044                 1.4271
 Red. Mass:       1.2236                 1.0816                 1.3432
 IR Intens:        4.489                  3.559                141.576
 Frequency:      1408.60                1444.00                1497.38
 Force Cnst:      2.1315                 2.2383                 1.9445
 Red. Mass:       1.8233                 1.8219                 1.4719
 IR Intens:      161.361                327.849                303.975
 Frequency:      1507.39                1619.54                2915.14
 Force Cnst:      1.4618                18.0175                 5.3034
 Red. Mass:       1.0919                11.6591                 1.0592
 IR Intens:        2.099                892.051                248.356
 Frequency:      2934.87                3084.63                3146.98
 Force Cnst:      5.5666                 5.9373                 6.4649
 Red. Mass:       1.0969                 1.0591                 1.1080
 IR Intens:      148.884                 73.611                 34.269

 STANDARD THERMODYNAMIC QUANTITIES AT   298.15 K  AND     1.00 ATM

   This Molecule has  1 Imaginary Frequencies
   Zero point vibrational energy:       51.053 kcal/mol

   Atom    1 Element C  Has Mass   12.00000
   Atom    2 Element C  Has Mass   12.00000
   Atom    3 Element O  Has Mass   15.99491
   Atom    4 Element C  Has Mass   12.00000
   Atom    5 Element O  Has Mass   15.99491
   Atom    6 Element O  Has Mass   15.99491
   Atom    7 Element O  Has Mass   15.99491
   Atom    8 Element Li Has Mass    7.01600
   Atom    9 Element H  Has Mass    1.00783
   Atom   10 Element H  Has Mass    1.00783
   Atom   11 Element H  Has Mass    1.00783
   Atom   12 Element H  Has Mass    1.00783
   Atom   13 Element H  Has Mass    1.00783
   Atom   14 Element Li Has Mass    7.01600
   Molecular Mass:   119.050790 amu
   Principal axes and moments of inertia in amu*Bohr^2:
                             1           2           3
    Eigenvalues --      313.31792  2110.25675  2264.54936
          X               0.98662    -0.05351    -0.15404
          Y               0.12066     0.87496     0.46893
          Z               0.10968    -0.48124     0.86970
   Rotational Symmetry Number is   1
   The Molecule is an Asymmetric Top
   Translational Enthalpy:        0.889 kcal/mol
   Rotational Enthalpy:           0.889 kcal/mol
   Vibrational Enthalpy:         56.087 kcal/mol
   gas constant (RT):             0.592 kcal/mol
   Translational Entropy:        40.238  cal/mol.K
   Rotational Entropy:           28.794  cal/mol.K
   Vibrational Entropy:          34.673  cal/mol.K

   Total Enthalpy:               58.456 kcal/mol
   Total Entropy:               103.705  cal/mol.K

 Total job time:  12584.47s(wall), 305690.14s(cpu)
        *  Thank you very much for using Q-Chem.  Have a nice day.  *
