 Q-Chem 5.2, Q-Chem, Inc., Pleasanton, CA (2019)
 Q-Chem 5.2.2 for Intel X86 EM64T Linux

User input:
--------------------------------------------------------------
$molecule
0 1
O      5.0797813306     -0.1609607934      2.5327263481
C      5.0550394296      0.9043948192      1.8688451987
C      3.8703148316     -1.2738168484      1.7967557034
O      5.7280383193      1.9381123077      1.9965549474
O      4.1502527347      0.9355388333      0.8464614658
C      3.3765927452     -0.2915193255      0.7503863798
Li      4.8814421220      2.7971767464      0.5463124880
H      3.3274634305     -1.3978578119      2.7186651693
H      4.5984332111     -2.0155952675      1.5144942649
H      2.3336095920     -0.0302486221      0.9123629902
H      3.5277536539     -0.6928148212     -0.2481876552
O      2.4743572458     -2.5471048916      1.0670454504
C      2.8746023876     -3.3412907292      0.1405649544
O      2.1017215864     -4.2664620932     -0.3181600905
O      4.0664658418     -3.2397531280     -0.3643922433
Li      3.5421115379     -4.6815783745     -1.3948253715
$end

$rem
job_type = freq
basis = def2-tzvppd
max_scf_cycles = 200
gen_scfman = true
xc_grid = 3
scf_algorithm = diis
resp_charges = true
symmetry = false
sym_ignore = true
method = wb97xv
solvent_method = smd
ideriv = 1
thresh = 14
$end

$smx
solvent other
$end
--------------------------------------------------------------

   14    -621.4359312703      9.60e-09  Convergence criterion met
 Total energy in the final basis set =     -621.4411141046
   12    -621.4359295740      9.11e-09  Convergence criterion met
 Total energy in the final basis set =     -621.4411138797
   12    -621.4359325525      9.13e-09  Convergence criterion met
 Total energy in the final basis set =     -621.4411139153
   12    -621.4359288996      9.06e-09  Convergence criterion met
 Total energy in the final basis set =     -621.4411131758
   12    -621.4359319302      9.19e-09  Convergence criterion met
 Total energy in the final basis set =     -621.4411133164
   12    -621.4359299146      9.10e-09  Convergence criterion met
 Total energy in the final basis set =     -621.4411136043
   12    -621.4359316215      9.10e-09  Convergence criterion met
 Total energy in the final basis set =     -621.4411135964
   12    -621.4359327621      9.15e-09  Convergence criterion met
 Total energy in the final basis set =     -621.4411138151
   12    -621.4359313665      9.13e-09  Convergence criterion met
 Total energy in the final basis set =     -621.4411138688
   12    -621.4359311869      9.11e-09  Convergence criterion met
 Total energy in the final basis set =     -621.4411140054
   12    -621.4359312250      9.11e-09  Convergence criterion met
 Total energy in the final basis set =     -621.4411140748
   12    -621.4359311687      9.11e-09  Convergence criterion met
 Total energy in the final basis set =     -621.4411140467
   12    -621.4359312244      9.12e-09  Convergence criterion met
 Total energy in the final basis set =     -621.4411140153
   12    -621.4359311177      9.11e-09  Convergence criterion met
 Total energy in the final basis set =     -621.4411140159
   12    -621.4359312654      9.12e-09  Convergence criterion met
 Total energy in the final basis set =     -621.4411140364

                    Orbital Energies (a.u.)
 --------------------------------------------------------------

 Alpha MOs
 -- Occupied --
-19.2782 -19.2333 -19.2100 -19.1468 -19.1350 -19.1321 -10.4488 -10.3653
-10.3464 -10.3355  -2.1345  -2.0613  -1.2859  -1.1708  -1.1678  -1.1555
 -1.0533  -1.0349  -0.9025  -0.7902  -0.7011  -0.6460  -0.6353  -0.6151
 -0.5936  -0.5716  -0.5580  -0.5337  -0.5223  -0.5199  -0.5129  -0.4989
 -0.4602  -0.4299  -0.4228  -0.4185  -0.3807  -0.3576  -0.3526  -0.3441
 -0.3190

          Ground-State Mulliken Net Atomic Charges

     Atom                 Charge (a.u.)
  ----------------------------------------
      1 O                    -0.416822
      2 C                     0.731917
      3 C                     0.349055
      4 O                    -0.728326
      5 O                    -0.421300
      6 C                    -0.019877
      7 Li                    0.899307
      8 H                     0.132715
      9 H                     0.126893
     10 H                     0.049593
     11 H                     0.053386
     12 O                    -0.614603
     13 C                     0.786104
     14 O                    -0.869438
     15 O                    -0.916811
     16 Li                    0.858207
  ----------------------------------------
  Sum of atomic charges =     0.000000

                    Cartesian Multipole Moments
 -----------------------------------------------------------------
    Charge (ESU x 10^10)
                 0.0000
    Dipole Moment (Debye)
         X       3.8292      Y      10.5893      Z      -6.3264
       Tot      12.9158
    Quadrupole Moments (Debye-Ang)
        XX     -49.9423     XY      23.2284     YY     -40.6261
        XZ     -31.1610     YZ      16.2154     ZZ     -63.5978

             Standard Nuclear Orientation (Angstroms)
    I     Atom           X                Y                Z
 ----------------------------------------------------------------
    1      O       5.0797813306    -0.1609607934     2.5327263481
    2      C       5.0550394296     0.9043948192     1.8688451987
    3      C       3.8703148316    -1.2738168484     1.7967557034
    4      O       5.7280383193     1.9381123077     1.9965549474
    5      O       4.1502527347     0.9355388333     0.8464614658
    6      C       3.3765927452    -0.2915193255     0.7503863798
    7      Li      4.8814421220     2.7971767464     0.5463124880
    8      H       3.3274634305    -1.3978578119     2.7186651693
    9      H       4.5984332111    -2.0155952675     1.5144942649
   10      H       2.3336095920    -0.0302486221     0.9123629902
   11      H       3.5277536539    -0.6928148212    -0.2481876552
   12      O       2.4743572458    -2.5471048916     1.0670454504
   13      C       2.8746023876    -3.3412907292     0.1405649544
   14      O       2.1017215864    -4.2664620932    -0.3181600905
   15      O       4.0664658418    -3.2397531280    -0.3643922433
   16      Li      3.5421115379    -4.6815783745    -1.3948253715
 ----------------------------------------------------------------

 Frequency:      -598.10                  29.89                  50.73
 Force Cnst:      2.5142                 0.0047                 0.0179
 Red. Mass:      11.9291                 8.9997                11.7945
 IR Intens:     1881.114                 22.139                  7.679
 Frequency:        69.24                 100.90                 121.46
 Force Cnst:      0.0177                 0.0434                 0.0337
 Red. Mass:       6.2617                 7.2280                 3.8817
 IR Intens:        4.829                 22.914                 38.573
 Frequency:       135.75                 168.63                 193.07
 Force Cnst:      0.0919                 0.0826                 0.1848
 Red. Mass:       8.4680                 4.9277                 8.4129
 IR Intens:      112.907                 17.846                 62.561
 Frequency:       248.29                 274.98                 346.25
 Force Cnst:      0.4173                 0.3576                 0.2789
 Red. Mass:      11.4893                 8.0265                 3.9481
 IR Intens:        3.162                  5.227                 28.949
 Frequency:       449.11                 486.26                 562.74
 Force Cnst:      0.9905                 1.0444                 1.5472
 Red. Mass:       8.3351                 7.4968                 8.2924
 IR Intens:       33.666                238.421                159.339
 Frequency:       575.75                 680.74                 701.58
 Force Cnst:      1.5318                 2.1873                 3.9379
 Red. Mass:       7.8431                 8.0110                13.5790
 IR Intens:      125.029                 34.658                 15.006
 Frequency:       753.90                 771.29                 807.22
 Force Cnst:      4.5481                 3.5346                 0.7235
 Red. Mass:      13.5816                10.0843                 1.8846
 IR Intens:       36.411                 12.959                 33.662
 Frequency:       820.13                 872.78                 957.52
 Force Cnst:      0.8803                 5.6129                 5.1422
 Red. Mass:       2.2213                12.5061                 9.5192
 IR Intens:       17.221                 32.440                 54.804
 Frequency:      1053.78                1078.72                1116.19
 Force Cnst:      2.9459                 7.0727                 2.8638
 Red. Mass:       4.5026                10.3162                 3.9013
 IR Intens:      234.898                  3.640                225.570
 Frequency:      1169.20                1175.28                1226.48
 Force Cnst:      1.2156                 0.8855                 1.1504
 Red. Mass:       1.5092                 1.0881                 1.2980
 IR Intens:        0.391                  2.281                106.263
 Frequency:      1284.84                1355.41                1432.81
 Force Cnst:      1.0404                 1.9110                 3.9337
 Red. Mass:       1.0696                 1.7655                 3.2522
 IR Intens:        7.021                104.643                527.772
 Frequency:      1441.14                1461.37                1499.55
 Force Cnst:      2.9853                 2.1001                 7.5450
 Red. Mass:       2.4396                 1.6690                 5.6949
 IR Intens:      516.825                 61.093               1292.628
 Frequency:      1508.78                1750.30                3142.44
 Force Cnst:      1.6578                21.2428                 6.1574
 Red. Mass:       1.2361                11.7689                 1.0583
 IR Intens:      104.616               1226.379                 10.833
 Frequency:      3211.21                3227.71                3352.41
 Force Cnst:      6.7667                 6.4723                 7.4702
 Red. Mass:       1.1138                 1.0544                 1.1282
 IR Intens:        2.106                  5.531                  2.905

 STANDARD THERMODYNAMIC QUANTITIES AT   298.15 K  AND     1.00 ATM

   This Molecule has  1 Imaginary Frequencies
   Zero point vibrational energy:       59.564 kcal/mol

   Atom    1 Element O  Has Mass   15.99491
   Atom    2 Element C  Has Mass   12.00000
   Atom    3 Element C  Has Mass   12.00000
   Atom    4 Element O  Has Mass   15.99491
   Atom    5 Element O  Has Mass   15.99491
   Atom    6 Element C  Has Mass   12.00000
   Atom    7 Element Li Has Mass    7.01600
   Atom    8 Element H  Has Mass    1.00783
   Atom    9 Element H  Has Mass    1.00783
   Atom   10 Element H  Has Mass    1.00783
   Atom   11 Element H  Has Mass    1.00783
   Atom   12 Element O  Has Mass   15.99491
   Atom   13 Element C  Has Mass   12.00000
   Atom   14 Element O  Has Mass   15.99491
   Atom   15 Element O  Has Mass   15.99491
   Atom   16 Element Li Has Mass    7.01600
   Molecular Mass:   162.032780 amu
   Principal axes and moments of inertia in amu*Bohr^2:
                             1           2           3
    Eigenvalues --      552.26042  3967.66853  4033.06780
          X               0.37375     0.06516     0.92524
          Y               0.87123    -0.36690    -0.32610
          Z               0.31822     0.92798    -0.19389
   Rotational Symmetry Number is   1
   The Molecule is an Asymmetric Top
   Translational Enthalpy:        0.889 kcal/mol
   Rotational Enthalpy:           0.889 kcal/mol
   Vibrational Enthalpy:         65.083 kcal/mol
   gas constant (RT):             0.592 kcal/mol
   Translational Entropy:        41.156  cal/mol.K
   Rotational Entropy:           30.558  cal/mol.K
   Vibrational Entropy:          38.047  cal/mol.K

   Total Enthalpy:               67.453 kcal/mol
   Total Entropy:               109.762  cal/mol.K

 Total job time:  21051.49s(wall), 538177.48s(cpu)
        *  Thank you very much for using Q-Chem.  Have a nice day.  *
