 Q-Chem 5.2, Q-Chem, Inc., Pleasanton, CA (2019)
 Q-Chem 5.2.2 for Intel X86 EM64T Linux

User input:
--------------------------------------------------------------
$molecule
-1 1
O     -5.3896121047     -1.2884457100      0.4893663227
C     -6.2176180820     -0.2611068540      0.8616031488
C     -4.1094671668     -1.2113750997      1.1239252091
O     -7.3794088010     -0.2854148377      0.4777351497
O     -5.6380073203      0.6226972097      1.5795478624
C     -3.8081625455      0.2068995948      1.5560808087
H     -3.3763128099     -1.5437486548      0.3933933077
H     -4.0993208729     -1.8814597157      1.9888426390
H     -3.7435736245      0.4711031377      2.5968250653
H     -3.6044640595      0.9547351565      0.8077890474
O     -1.9093242017     -0.1560336816      1.7181552625
C     -1.1962091485     -0.0162801623      0.6562082436
O     -1.7282636601      0.3187885192     -0.4755663692
O      0.0789663787     -0.2093792172      0.6950816617
Li      0.0062847518      0.2084668540     -1.1015864163
$end

$rem
job_type = freq
basis = def2-tzvppd
max_scf_cycles = 200
gen_scfman = true
xc_grid = 3
scf_algorithm = diis
resp_charges = true
symmetry = false
sym_ignore = true
method = wb97xv
solvent_method = smd
ideriv = 1
thresh = 14
$end

$smx
solvent other
$end
--------------------------------------------------------------

   14    -613.9819047693      9.90e-09  Convergence criterion met
 Total energy in the final basis set =     -613.9893212596
   12    -613.9819058064      7.74e-09  Convergence criterion met
 Total energy in the final basis set =     -613.9893204450
   12    -613.9819022063      7.76e-09  Convergence criterion met
 Total energy in the final basis set =     -613.9893205409
   12    -613.9819030691      7.75e-09  Convergence criterion met
 Total energy in the final basis set =     -613.9893207691
   12    -613.9819053685      7.74e-09  Convergence criterion met
 Total energy in the final basis set =     -613.9893206367
   12    -613.9819045205      7.75e-09  Convergence criterion met
 Total energy in the final basis set =     -613.9893209235
   12    -613.9819043574      7.75e-09  Convergence criterion met
 Total energy in the final basis set =     -613.9893209298
   12    -613.9819000086      7.77e-09  Convergence criterion met
 Total energy in the final basis set =     -613.9893209756
   12    -613.9819054071      7.74e-09  Convergence criterion met
 Total energy in the final basis set =     -613.9893209709
   12    -613.9819047217      7.75e-09  Convergence criterion met
 Total energy in the final basis set =     -613.9893211655
   12    -613.9819046401      7.75e-09  Convergence criterion met
 Total energy in the final basis set =     -613.9893211768
   12    -613.9819047865      7.75e-09  Convergence criterion met
 Total energy in the final basis set =     -613.9893212679
   12    -613.9819047311      7.75e-09  Convergence criterion met
 Total energy in the final basis set =     -613.9893212309
   12    -613.9819045837      7.75e-09  Convergence criterion met
 Total energy in the final basis set =     -613.9893211369
   12    -613.9819047174      7.74e-09  Convergence criterion met
 Total energy in the final basis set =     -613.9893211451

                    Orbital Energies (a.u.)
 --------------------------------------------------------------

 Alpha MOs
 -- Occupied --
-19.2180 -19.1713 -19.1440 -19.1438 -19.1291 -19.1266 -10.3855 -10.3599
-10.3206 -10.3020  -2.0561  -1.2210  -1.1658  -1.1106  -1.0829  -1.0491
 -1.0298  -0.8683  -0.7505  -0.6489  -0.6058  -0.5999  -0.5697  -0.5584
 -0.5368  -0.5253  -0.5157  -0.5050  -0.4926  -0.4811  -0.4538  -0.4040
 -0.3753  -0.3739  -0.3660  -0.3545  -0.3480  -0.3390  -0.3348  -0.3098

          Ground-State Mulliken Net Atomic Charges

     Atom                 Charge (a.u.)
  ----------------------------------------
      1 O                    -0.296226
      2 C                     0.416250
      3 C                     0.032511
      4 O                    -0.584961
      5 O                    -0.517880
      6 C                     0.314256
      7 H                     0.049082
      8 H                     0.043359
      9 H                     0.119247
     10 H                     0.137419
     11 O                    -0.561335
     12 C                     0.767744
     13 O                    -0.901593
     14 O                    -0.874150
     15 Li                    0.856277
  ----------------------------------------
  Sum of atomic charges =    -1.000000

                    Cartesian Multipole Moments
 -----------------------------------------------------------------
    Charge (ESU x 10^10)
                -4.8032
    Dipole Moment (Debye)
         X      24.9912      Y       0.7521      Z      -7.7776
       Tot      26.1843
    Quadrupole Moments (Debye-Ang)
        XX    -224.1578     XY       0.3110     YY     -63.1687
        XZ       9.0322     YZ      -2.2279     ZZ     -64.2656

             Standard Nuclear Orientation (Angstroms)
    I     Atom           X                Y                Z
 ----------------------------------------------------------------
    1      O      -5.3896121047    -1.2884457100     0.4893663227
    2      C      -6.2176180820    -0.2611068540     0.8616031488
    3      C      -4.1094671668    -1.2113750997     1.1239252091
    4      O      -7.3794088010    -0.2854148377     0.4777351497
    5      O      -5.6380073203     0.6226972097     1.5795478624
    6      C      -3.8081625455     0.2068995948     1.5560808087
    7      H      -3.3763128099    -1.5437486548     0.3933933077
    8      H      -4.0993208729    -1.8814597157     1.9888426390
    9      H      -3.7435736245     0.4711031377     2.5968250653
   10      H      -3.6044640595     0.9547351565     0.8077890474
   11      O      -1.9093242017    -0.1560336816     1.7181552625
   12      C      -1.1962091485    -0.0162801623     0.6562082436
   13      O      -1.7282636601     0.3187885192    -0.4755663692
   14      O       0.0789663787    -0.2093792172     0.6950816617
   15      Li      0.0062847518     0.2084668540    -1.1015864163
 ----------------------------------------------------------------

 Frequency:      -641.50                  41.17                  54.99
 Force Cnst:      2.8194                 0.0096                 0.0221
 Red. Mass:      11.6284                 9.6575                12.3996
 IR Intens:     2052.469                 14.021                  1.780
 Frequency:        64.95                 115.78                 140.12
 Force Cnst:      0.0143                 0.0433                 0.1000
 Red. Mass:       5.7345                 5.4827                 8.6483
 IR Intens:        9.792                  5.685                101.874
 Frequency:       165.68                 258.93                 272.76
 Force Cnst:      0.0631                 0.4208                 0.3971
 Red. Mass:       3.9037                10.6519                 9.0584
 IR Intens:       12.174                  3.041                  8.111
 Frequency:       347.49                 452.30                 524.67
 Force Cnst:      0.2707                 1.0045                 0.9892
 Red. Mass:       3.8046                 8.3340                 6.0989
 IR Intens:       31.397                 42.130                 52.520
 Frequency:       574.70                 652.95                 703.68
 Force Cnst:      1.4334                 1.2676                 3.4104
 Red. Mass:       7.3663                 5.0465                11.6898
 IR Intens:      206.107                  6.131                 20.180
 Frequency:       753.51                 762.92                 826.08
 Force Cnst:      3.9282                 1.6232                 2.2127
 Red. Mass:      11.7425                 4.7332                 5.5033
 IR Intens:       34.323                  6.143                 53.811
 Frequency:       840.10                 871.96                 971.95
 Force Cnst:      0.7592                 5.5253                 4.6118
 Red. Mass:       1.8257                12.3343                 8.2858
 IR Intens:       24.239                 31.823                 54.262
 Frequency:      1060.68                1077.20                1137.01
 Force Cnst:      2.0889                 5.8571                 3.6877
 Red. Mass:       3.1514                 8.5672                 4.8415
 IR Intens:       81.231                  7.521                228.171
 Frequency:      1158.95                1173.12                1226.14
 Force Cnst:      1.3010                 0.9030                 1.1997
 Red. Mass:       1.6440                 1.1137                 1.3544
 IR Intens:       26.064                  8.208                101.019
 Frequency:      1302.49                1338.60                1428.77
 Force Cnst:      1.0926                 2.1206                 1.8666
 Red. Mass:       1.0931                 2.0086                 1.5519
 IR Intens:       48.627                206.091                 88.363
 Frequency:      1443.20                1461.50                1495.20
 Force Cnst:      6.3207                 2.2275                 5.8952
 Red. Mass:       5.1507                 1.7700                 4.4756
 IR Intens:      822.892                134.980               1156.647
 Frequency:      1505.78                1743.14                3079.68
 Force Cnst:      1.7211                22.3791                 5.9720
 Red. Mass:       1.2883                12.5005                 1.0687
 IR Intens:      167.329               1337.682                 54.156
 Frequency:      3178.51                3227.07                3352.84
 Force Cnst:      6.5448                 6.4676                 7.4746
 Red. Mass:       1.0995                 1.0541                 1.1285
 IR Intens:       11.917                  6.612                  1.236

 STANDARD THERMODYNAMIC QUANTITIES AT   298.15 K  AND     1.00 ATM

   This Molecule has  1 Imaginary Frequencies
   Zero point vibrational energy:       58.307 kcal/mol

   Atom    1 Element O  Has Mass   15.99491
   Atom    2 Element C  Has Mass   12.00000
   Atom    3 Element C  Has Mass   12.00000
   Atom    4 Element O  Has Mass   15.99491
   Atom    5 Element O  Has Mass   15.99491
   Atom    6 Element C  Has Mass   12.00000
   Atom    7 Element H  Has Mass    1.00783
   Atom    8 Element H  Has Mass    1.00783
   Atom    9 Element H  Has Mass    1.00783
   Atom   10 Element H  Has Mass    1.00783
   Atom   11 Element O  Has Mass   15.99491
   Atom   12 Element C  Has Mass   12.00000
   Atom   13 Element O  Has Mass   15.99491
   Atom   14 Element O  Has Mass   15.99491
   Atom   15 Element Li Has Mass    7.01600
   Molecular Mass:   155.016780 amu
   Principal axes and moments of inertia in amu*Bohr^2:
                             1           2           3
    Eigenvalues --      493.14380  3476.77338  3589.72976
          X               0.99431     0.08200    -0.06795
          Y               0.05628     0.13715     0.98895
          Z              -0.09041     0.98715    -0.13175
   Rotational Symmetry Number is   1
   The Molecule is an Asymmetric Top
   Translational Enthalpy:        0.889 kcal/mol
   Rotational Enthalpy:           0.889 kcal/mol
   Vibrational Enthalpy:         62.856 kcal/mol
   gas constant (RT):             0.592 kcal/mol
   Translational Entropy:        41.025  cal/mol.K
   Rotational Entropy:           30.199  cal/mol.K
   Vibrational Entropy:          31.129  cal/mol.K

   Total Enthalpy:               65.226 kcal/mol
   Total Entropy:               102.352  cal/mol.K

 Total job time:  17530.73s(wall), 451793.07s(cpu)
        *  Thank you very much for using Q-Chem.  Have a nice day.  *
