 Q-Chem 5.2, Q-Chem, Inc., Pleasanton, CA (2019)
 Q-Chem 5.2.2 for Intel X86 EM64T Linux

User input:
--------------------------------------------------------------
$molecule
0 1
O      4.9490899061     -0.0733925555      1.1007361448
C      4.9078878412      0.9862520443      1.8804956768
C      3.9054629496     -0.0469171405      0.0834562333
O      5.7074141246      1.1632906182      2.8073684385
O      3.9696731297      1.8414373659      1.6199803497
C      3.0276551257      1.1787918898      0.2653789766
Li      4.7631018428      2.7913140698      3.1817808793
H      3.3207295773     -0.9545803911      0.2069505565
H      4.4047702004     -0.0378006321     -0.8824213106
H      2.1056677832      1.0804142130      0.8139624333
H      3.1689219248      2.0386583293     -0.3677420483
O      1.9638253141      0.4838664380     -1.3402365495
C      0.9650737897     -0.2679753844     -1.0532407743
O      0.1752897735     -0.7063773088     -1.9751199028
O      0.7139970998     -0.6151561678      0.1738044683
Li     -0.7064757984     -1.5251434368     -0.5777135511
$end

$rem
job_type = freq
basis = def2-tzvppd
max_scf_cycles = 200
gen_scfman = true
xc_grid = 3
scf_algorithm = diis
resp_charges = true
symmetry = false
sym_ignore = true
method = wb97xv
solvent_method = smd
ideriv = 1
thresh = 14
$end

$smx
solvent other
$end
--------------------------------------------------------------

   14    -621.4381248154      9.74e-09  Convergence criterion met
 Total energy in the final basis set =     -621.4435344510
   12    -621.4381234483      9.38e-09  Convergence criterion met
 Total energy in the final basis set =     -621.4435340155
   12    -621.4381252778      9.37e-09  Convergence criterion met
 Total energy in the final basis set =     -621.4435339786
   12    -621.4381237451      9.38e-09  Convergence criterion met
 Total energy in the final basis set =     -621.4435337197
   12    -621.4381244678      9.36e-09  Convergence criterion met
 Total energy in the final basis set =     -621.4435337509
   12    -621.4381230036      9.40e-09  Convergence criterion met
 Total energy in the final basis set =     -621.4435338524
   12    -621.4381253887      9.36e-09  Convergence criterion met
 Total energy in the final basis set =     -621.4435338036
   12    -621.4381247103      9.38e-09  Convergence criterion met
 Total energy in the final basis set =     -621.4435335957
   12    -621.4381235315      9.36e-09  Convergence criterion met
 Total energy in the final basis set =     -621.4435335931
   12    -621.4381246533      9.39e-09  Convergence criterion met
 Total energy in the final basis set =     -621.4435343506
   12    -621.4381247845      9.37e-09  Convergence criterion met
 Total energy in the final basis set =     -621.4435343590
   12    -621.4381247224      9.38e-09  Convergence criterion met
 Total energy in the final basis set =     -621.4435344054
   12    -621.4381247974      9.37e-09  Convergence criterion met
 Total energy in the final basis set =     -621.4435343863
   12    -621.4381247759      9.38e-09  Convergence criterion met
 Total energy in the final basis set =     -621.4435343994
   12    -621.4381247207      9.38e-09  Convergence criterion met
 Total energy in the final basis set =     -621.4435343680

                    Orbital Energies (a.u.)
 --------------------------------------------------------------

 Alpha MOs
 -- Occupied --
-19.2735 -19.2449 -19.2120 -19.1444 -19.1338 -19.1310 -10.4531 -10.3640
-10.3485 -10.3332  -2.1319  -2.0602  -1.2909  -1.1808  -1.1689  -1.1478
 -1.0514  -1.0333  -0.9042  -0.7932  -0.7041  -0.6477  -0.6343  -0.6184
 -0.5916  -0.5728  -0.5533  -0.5328  -0.5203  -0.5186  -0.5133  -0.4962
 -0.4777  -0.4304  -0.4248  -0.4189  -0.3798  -0.3567  -0.3513  -0.3432
 -0.3177

          Ground-State Mulliken Net Atomic Charges

     Atom                 Charge (a.u.)
  ----------------------------------------
      1 O                    -0.265468
      2 C                     0.774164
      3 C                     0.064094
      4 O                    -0.713331
      5 O                    -0.618143
      6 C                     0.296052
      7 Li                    0.887148
      8 H                     0.060625
      9 H                     0.051089
     10 H                     0.119933
     11 H                     0.116750
     12 O                    -0.621843
     13 C                     0.783419
     14 O                    -0.872429
     15 O                    -0.919939
     16 Li                    0.857879
  ----------------------------------------
  Sum of atomic charges =     0.000000

                    Cartesian Multipole Moments
 -----------------------------------------------------------------
    Charge (ESU x 10^10)
                -0.0000
    Dipole Moment (Debye)
         X       1.9539      Y       5.4034      Z      10.3058
       Tot      11.7993
    Quadrupole Moments (Debye-Ang)
        XX     -39.6748     XY      41.0961     YY     -27.9758
        XZ      24.3802     YZ      26.8556     ZZ     -55.9673

             Standard Nuclear Orientation (Angstroms)
    I     Atom           X                Y                Z
 ----------------------------------------------------------------
    1      O       4.9490899061    -0.0733925555     1.1007361448
    2      C       4.9078878412     0.9862520443     1.8804956768
    3      C       3.9054629496    -0.0469171405     0.0834562333
    4      O       5.7074141246     1.1632906182     2.8073684385
    5      O       3.9696731297     1.8414373659     1.6199803497
    6      C       3.0276551257     1.1787918898     0.2653789766
    7      Li      4.7631018428     2.7913140698     3.1817808793
    8      H       3.3207295773    -0.9545803911     0.2069505565
    9      H       4.4047702004    -0.0378006321    -0.8824213106
   10      H       2.1056677832     1.0804142130     0.8139624333
   11      H       3.1689219248     2.0386583293    -0.3677420483
   12      O       1.9638253141     0.4838664380    -1.3402365495
   13      C       0.9650737897    -0.2679753844    -1.0532407743
   14      O       0.1752897735    -0.7063773088    -1.9751199028
   15      O       0.7139970998    -0.6151561678     0.1738044683
   16      Li     -0.7064757984    -1.5251434368    -0.5777135511
 ----------------------------------------------------------------

 Frequency:      -587.33                  34.50                  47.32
 Force Cnst:      2.4246                 0.0072                 0.0156
 Red. Mass:      11.9299                10.3353                11.8250
 IR Intens:     1861.639                 14.029                  7.893
 Frequency:        55.47                 105.72                 119.81
 Force Cnst:      0.0129                 0.0214                 0.0676
 Red. Mass:       7.1026                 3.2433                 7.9965
 IR Intens:       15.873                 33.703                 32.618
 Frequency:       139.98                 178.80                 199.43
 Force Cnst:      0.0957                 0.0945                 0.1993
 Red. Mass:       8.2896                 5.0156                 8.5049
 IR Intens:       94.067                 15.852                 66.028
 Frequency:       239.35                 299.25                 340.63
 Force Cnst:      0.3355                 0.4665                 0.2680
 Red. Mass:       9.9392                 8.8406                 3.9203
 IR Intens:       10.628                 51.890                 30.425
 Frequency:       450.93                 479.26                 560.35
 Force Cnst:      1.0196                 0.9801                 1.6007
 Red. Mass:       8.5107                 7.2426                 8.6525
 IR Intens:       43.412                178.599                148.011
 Frequency:       576.30                 692.92                 701.13
 Force Cnst:      1.5352                 2.0489                 3.9985
 Red. Mass:       7.8454                 7.2426                13.8056
 IR Intens:      144.891                 65.834                 13.542
 Frequency:       754.87                 780.53                 807.98
 Force Cnst:      4.6530                 3.9440                 0.5765
 Red. Mass:      13.8594                10.9875                 1.4987
 IR Intens:       40.262                 22.173                 27.436
 Frequency:       823.58                 873.34                 952.09
 Force Cnst:      1.2946                 5.6272                 4.9704
 Red. Mass:       3.2395                12.5221                 9.3066
 IR Intens:       25.121                 32.182                 33.333
 Frequency:      1076.19                1086.98                1131.83
 Force Cnst:      3.9343                 2.5227                 5.4270
 Red. Mass:       5.7656                 3.6239                 7.1903
 IR Intens:       15.809                  4.157                251.211
 Frequency:      1166.62                1174.90                1238.14
 Force Cnst:      1.2388                 0.8709                 1.1999
 Red. Mass:       1.5449                 1.0708                 1.3285
 IR Intens:        0.290                  5.352                125.400
 Frequency:      1285.98                1352.62                1429.43
 Force Cnst:      1.0427                 1.6691                 5.5298
 Red. Mass:       1.0701                 1.5483                 4.5934
 IR Intens:        7.293                128.229                740.413
 Frequency:      1451.91                1486.73                1502.93
 Force Cnst:      1.8168                 2.1083                12.8797
 Red. Mass:       1.4628                 1.6189                 9.6779
 IR Intens:      138.371                 87.737               1383.015
 Frequency:      1514.64                1700.05                3143.67
 Force Cnst:      2.2378                20.6899                 6.1643
 Red. Mass:       1.6556                12.1502                 1.0587
 IR Intens:      222.277               1121.572                 10.878
 Frequency:      3210.86                3225.84                3350.18
 Force Cnst:      6.7629                 6.4645                 7.4598
 Red. Mass:       1.1134                 1.0544                 1.1281
 IR Intens:        2.215                  6.760                  3.759

 STANDARD THERMODYNAMIC QUANTITIES AT   298.15 K  AND     1.00 ATM

   This Molecule has  1 Imaginary Frequencies
   Zero point vibrational energy:       59.675 kcal/mol

   Atom    1 Element O  Has Mass   15.99491
   Atom    2 Element C  Has Mass   12.00000
   Atom    3 Element C  Has Mass   12.00000
   Atom    4 Element O  Has Mass   15.99491
   Atom    5 Element O  Has Mass   15.99491
   Atom    6 Element C  Has Mass   12.00000
   Atom    7 Element Li Has Mass    7.01600
   Atom    8 Element H  Has Mass    1.00783
   Atom    9 Element H  Has Mass    1.00783
   Atom   10 Element H  Has Mass    1.00783
   Atom   11 Element H  Has Mass    1.00783
   Atom   12 Element O  Has Mass   15.99491
   Atom   13 Element C  Has Mass   12.00000
   Atom   14 Element O  Has Mass   15.99491
   Atom   15 Element O  Has Mass   15.99491
   Atom   16 Element Li Has Mass    7.01600
   Molecular Mass:   162.032780 amu
   Principal axes and moments of inertia in amu*Bohr^2:
                             1           2           3
    Eigenvalues --      551.97648  3974.11756  4029.82152
          X               0.76473     0.61823     0.18161
          Y               0.31652    -0.60592     0.72985
          Z               0.56126    -0.50065    -0.65904
   Rotational Symmetry Number is   1
   The Molecule is an Asymmetric Top
   Translational Enthalpy:        0.889 kcal/mol
   Rotational Enthalpy:           0.889 kcal/mol
   Vibrational Enthalpy:         65.171 kcal/mol
   gas constant (RT):             0.592 kcal/mol
   Translational Entropy:        41.156  cal/mol.K
   Rotational Entropy:           30.559  cal/mol.K
   Vibrational Entropy:          37.970  cal/mol.K

   Total Enthalpy:               67.541 kcal/mol
   Total Entropy:               109.685  cal/mol.K

 Total job time:  20392.10s(wall), 517295.75s(cpu)
        *  Thank you very much for using Q-Chem.  Have a nice day.  *
