 Q-Chem 5.2, Q-Chem, Inc., Pleasanton, CA (2019)
 Q-Chem 5.2.2 for Intel X86 EM64T Linux

User input:
--------------------------------------------------------------
$molecule
-1 1
O      0.5331928974      0.5145403116     -0.4445448826
C     -0.7021949805     -0.0476091126     -0.6748708300
C      1.4294954636      0.0651473345      0.7914634320
O     -1.2340004762      0.4653456164     -1.7224510113
O     -1.1581790789     -0.9152050640      0.0688352562
C      2.6815238287      0.7733552699      0.8454354344
H      1.4982004116     -1.0093803527      0.6079576934
H      0.7385603195      0.2540299481      1.6162200839
H      2.8027417246      1.5667990981      1.5816234967
H      3.5908409740      0.2537552510      0.5469833434
Li      0.2601087500      1.5474984308     -1.9566317506
$end

$rem
job_type = freq
basis = def2-tzvppd
max_scf_cycles = 200
gen_scfman = true
xc_grid = 3
scf_algorithm = diis
resp_charges = true
symmetry = false
sym_ignore = true
method = wb97xv
solvent_method = smd
ideriv = 1
thresh = 14
$end

$smx
solvent other
$end
--------------------------------------------------------------

   16    -350.0968851724      4.65e-09  Convergence criterion met
 Total energy in the final basis set =     -350.0994009391
   13    -350.0968849041      7.18e-09  Convergence criterion met
 Total energy in the final basis set =     -350.0994003073
   13    -350.0968843480      7.19e-09  Convergence criterion met
 Total energy in the final basis set =     -350.0994004764
   13    -350.0968846664      7.17e-09  Convergence criterion met
 Total energy in the final basis set =     -350.0994003223
   13    -350.0968850214      7.18e-09  Convergence criterion met
 Total energy in the final basis set =     -350.0994008989
   13    -350.0968851339      7.18e-09  Convergence criterion met
 Total energy in the final basis set =     -350.0994007805
   13    -350.0968844013      7.19e-09  Convergence criterion met
 Total energy in the final basis set =     -350.0994002878
   13    -350.0968818491      7.18e-09  Convergence criterion met
 Total energy in the final basis set =     -350.0994008977
   13    -350.0968849582      7.18e-09  Convergence criterion met
 Total energy in the final basis set =     -350.0994008450
   13    -350.0968847199      7.18e-09  Convergence criterion met
 Total energy in the final basis set =     -350.0994008919
   13    -350.0968855089      7.17e-09  Convergence criterion met
 Total energy in the final basis set =     -350.0994008709
   13    -350.0968851228      7.18e-09  Convergence criterion met
 Total energy in the final basis set =     -350.0994008983
   13    -350.0968850814      7.18e-09  Convergence criterion met
 Total energy in the final basis set =     -350.0994008400
   13    -350.0968848130      7.18e-09  Convergence criterion met
 Total energy in the final basis set =     -350.0994008695
   13    -350.0968853972      7.18e-09  Convergence criterion met
 Total energy in the final basis set =     -350.0994008749

                    Orbital Energies (a.u.)
 --------------------------------------------------------------

 Alpha MOs
 -- Occupied --
-19.1845 -19.1368 -19.1322 -10.3694 -10.2751 -10.1698  -2.0690  -1.1822
 -1.0711  -1.0547  -0.8288  -0.6735  -0.6133  -0.5525  -0.5513  -0.5268
 -0.5047  -0.4615  -0.4257  -0.4152  -0.3731  -0.3601  -0.3446  -0.3296
 -0.2252

          Ground-State Mulliken Net Atomic Charges

     Atom                 Charge (a.u.)
  ----------------------------------------
      1 O                    -0.426794
      2 C                     0.520692
      3 C                     0.350983
      4 O                    -0.799896
      5 O                    -0.600060
      6 C                    -1.390363
      7 H                     0.114639
      8 H                     0.116264
      9 H                     0.154728
     10 H                     0.154955
     11 Li                    0.804851
  ----------------------------------------
  Sum of atomic charges =    -1.000000

                    Cartesian Multipole Moments
 -----------------------------------------------------------------
    Charge (ESU x 10^10)
                -4.8032
    Dipole Moment (Debye)
         X      -2.5843      Y       2.3406      Z      -3.9100
       Tot       5.2388
    Quadrupole Moments (Debye-Ang)
        XX     -75.0544     XY      -9.8448     YY     -39.6443
        XZ     -13.6373     YZ      -8.2267     ZZ     -39.0255

             Standard Nuclear Orientation (Angstroms)
    I     Atom           X                Y                Z
 ----------------------------------------------------------------
    1      O       0.5331928974     0.5145403116    -0.4445448826
    2      C      -0.7021949805    -0.0476091126    -0.6748708300
    3      C       1.4294954636     0.0651473345     0.7914634320
    4      O      -1.2340004762     0.4653456164    -1.7224510113
    5      O      -1.1581790789    -0.9152050640     0.0688352562
    6      C       2.6815238287     0.7733552699     0.8454354344
    7      H       1.4982004116    -1.0093803527     0.6079576934
    8      H       0.7385603195     0.2540299481     1.6162200839
    9      H       2.8027417246     1.5667990981     1.5816234967
   10      H       3.5908409740     0.2537552510     0.5469833434
   11      Li      0.2601087500     1.5474984308    -1.9566317506
 ----------------------------------------------------------------

 Frequency:      -433.63                  36.95                  52.23
 Force Cnst:      0.1913                 0.0032                 0.0037
 Red. Mass:       1.7266                 3.9614                 2.2837
 IR Intens:      797.918                 19.796                 56.488
 Frequency:       141.61                 152.77                 296.01
 Force Cnst:      0.1042                 0.0617                 0.1678
 Red. Mass:       8.8201                 4.4841                 3.2510
 IR Intens:       57.592                 31.745                161.938
 Frequency:       363.04                 417.49                 514.81
 Force Cnst:      0.0898                 0.6862                 1.2197
 Red. Mass:       1.1560                 6.6824                 7.8109
 IR Intens:       27.527                156.331                302.435
 Frequency:       554.23                 718.56                 794.04
 Force Cnst:      1.3228                 4.1467                 3.2056
 Red. Mass:       7.3090                13.6308                 8.6294
 IR Intens:      212.603                 10.373                512.371
 Frequency:       819.53                 845.30                 980.68
 Force Cnst:      0.4576                 3.5575                 6.4446
 Red. Mass:       1.1564                 8.4503                11.3733
 IR Intens:        0.391                 35.642                448.256
 Frequency:      1146.01                1158.24                1280.61
 Force Cnst:      2.2487                 1.1579                 2.3086
 Red. Mass:       2.9060                 1.4649                 2.3893
 IR Intens:      236.649                  1.885                507.836
 Frequency:      1283.31                1370.05                1437.39
 Force Cnst:      1.0726                 2.0494                 1.3434
 Red. Mass:       1.1054                 1.8531                 1.1036
 IR Intens:       19.114                208.460                  5.862
 Frequency:      1489.65                1705.73                3061.56
 Force Cnst:      1.7046                21.6511                 5.8277
 Red. Mass:       1.3038                12.6302                 1.0553
 IR Intens:       14.295                976.247                 92.692
 Frequency:      3105.96                3119.92                3176.23
 Force Cnst:      5.9899                 6.3730                 6.6277
 Red. Mass:       1.0539                 1.1112                 1.1150
 IR Intens:       33.592                 34.389                119.709

 STANDARD THERMODYNAMIC QUANTITIES AT   298.15 K  AND     1.00 ATM

   This Molecule has  1 Imaginary Frequencies
   Zero point vibrational energy:       42.918 kcal/mol

   Atom    1 Element O  Has Mass   15.99491
   Atom    2 Element C  Has Mass   12.00000
   Atom    3 Element C  Has Mass   12.00000
   Atom    4 Element O  Has Mass   15.99491
   Atom    5 Element O  Has Mass   15.99491
   Atom    6 Element C  Has Mass   12.00000
   Atom    7 Element H  Has Mass    1.00783
   Atom    8 Element H  Has Mass    1.00783
   Atom    9 Element H  Has Mass    1.00783
   Atom   10 Element H  Has Mass    1.00783
   Atom   11 Element Li Has Mass    7.01600
   Molecular Mass:    95.032050 amu
   Principal axes and moments of inertia in amu*Bohr^2:
                             1           2           3
    Eigenvalues --      293.07886   877.25862  1146.56310
          X               0.86089     0.27903    -0.42546
          Y               0.12462     0.69509     0.70804
          Z               0.49329    -0.66256     0.56362
   Rotational Symmetry Number is   1
   The Molecule is an Asymmetric Top
   Translational Enthalpy:        0.889 kcal/mol
   Rotational Enthalpy:           0.889 kcal/mol
   Vibrational Enthalpy:         45.997 kcal/mol
   gas constant (RT):             0.592 kcal/mol
   Translational Entropy:        39.566  cal/mol.K
   Rotational Entropy:           27.180  cal/mol.K
   Vibrational Entropy:          21.349  cal/mol.K

   Total Enthalpy:               48.367 kcal/mol
   Total Entropy:                88.095  cal/mol.K

 Total job time:  3861.30s(wall), 105046.41s(cpu)
        *  Thank you very much for using Q-Chem.  Have a nice day.  *
