 Q-Chem 5.2, Q-Chem, Inc., Pleasanton, CA (2019)
 Q-Chem 5.2.2 for Intel X86 EM64T Linux

User input:
--------------------------------------------------------------
$molecule
0 2
C      0.5475600491     -0.1546811321     -0.0074698369
C     -0.7680890371      0.0086818728     -0.2587589683
H      0.9572314317     -1.1331063805      0.2119916664
H      1.2553822635      0.6438658306     -0.1939727304
H     -1.4707658223     -0.8105695124     -0.1402507804
H     -1.1715034326      0.9748233234     -0.5465410580
O      0.5041235572      0.3528896806      2.1617628480
C      1.7311162934      0.2449127708      2.6455156956
O      2.7197055899     -0.0983799469      1.9421030628
O      1.8261335764      0.5173849900      3.8820377385
Li      3.6661975811      0.1112111547      3.5770194933
$end

$rem
job_type = freq
basis = def2-tzvppd
max_scf_cycles = 200
gen_scfman = true
xc_grid = 3
scf_algorithm = diis
resp_charges = true
symmetry = false
sym_ignore = true
method = wb97xv
solvent_method = smd
ideriv = 1
thresh = 14
$end

$smx
solvent other
$end
--------------------------------------------------------------

   19    -349.9530561220      8.86e-09  Convergence criterion met
 Total energy in the final basis set =     -349.9558812423
   15    -349.9530564859      6.15e-09  Convergence criterion met
 Total energy in the final basis set =     -349.9558798962
   15    -349.9530530808      6.26e-09  Convergence criterion met
 Total energy in the final basis set =     -349.9558799069
   15    -349.9530545206      6.05e-09  Convergence criterion met
 Total energy in the final basis set =     -349.9558801093
   15    -349.9530554599      6.19e-09  Convergence criterion met
 Total energy in the final basis set =     -349.9558801049
   15    -349.9530551960      6.08e-09  Convergence criterion met
 Total energy in the final basis set =     -349.9558811047
   15    -349.9530568216      6.33e-09  Convergence criterion met
 Total energy in the final basis set =     -349.9558811518
   15    -349.9530520464      6.05e-09  Convergence criterion met
 Total energy in the final basis set =     -349.9558802481
   15    -349.9530546143      6.03e-09  Convergence criterion met
 Total energy in the final basis set =     -349.9558802311
   15    -349.9530560810      6.27e-09  Convergence criterion met
 Total energy in the final basis set =     -349.9558811454
   15    -349.9530559582      6.06e-09  Convergence criterion met
 Total energy in the final basis set =     -349.9558811349
   15    -349.9530561210      6.21e-09  Convergence criterion met
 Total energy in the final basis set =     -349.9558812457
   15    -349.9530561065      6.17e-09  Convergence criterion met
 Total energy in the final basis set =     -349.9558812230
   15    -349.9530560680      6.18e-09  Convergence criterion met
 Total energy in the final basis set =     -349.9558811681
   15    -349.9530560671      6.12e-09  Convergence criterion met
 Total energy in the final basis set =     -349.9558812074

                    Orbital Energies (a.u.)
 --------------------------------------------------------------

 Alpha MOs
 -- Occupied --
-19.2530 -19.1787 -19.1745 -10.4080 -10.2829 -10.2821  -2.0981  -1.2312
 -1.1160  -1.0905  -0.9036  -0.7097  -0.6494  -0.5907  -0.5857  -0.5774
 -0.5673  -0.5311  -0.4700  -0.4631  -0.4302  -0.4178  -0.3832  -0.3752
 -0.3594

 Beta MOs
 -- Occupied --
-19.2374 -19.1764 -19.1744 -10.4085 -10.2834 -10.2782  -2.0981  -1.2175
 -1.0929  -1.0785  -0.8941  -0.7034  -0.6328  -0.5879  -0.5737  -0.5634
 -0.5568  -0.5273  -0.4614  -0.4139  -0.4030  -0.4023  -0.3818  -0.3497

          Ground-State Mulliken Net Atomic Charges

     Atom                 Charge (a.u.)    Spin (a.u.)
  --------------------------------------------------------
      1 C                     0.039568      -0.054845
      2 C                    -0.287148       0.331639
      3 H                     0.121816       0.000720
      4 H                     0.120783       0.000894
      5 H                     0.111866       0.003810
      6 H                     0.111681       0.003659
      7 O                    -0.295341       0.648201
      8 C                     0.785420      -0.028316
      9 O                    -0.790508       0.003250
     10 O                    -0.783751       0.089509
     11 Li                    0.865614       0.001479
  --------------------------------------------------------
  Sum of atomic charges =    -0.000000

                    Cartesian Multipole Moments
 -----------------------------------------------------------------
    Charge (ESU x 10^10)
                -0.0000
    Dipole Moment (Debye)
         X       4.3754      Y      -0.8031      Z      -0.0239
       Tot       4.4486
    Quadrupole Moments (Debye-Ang)
        XX      -6.9449     XY       0.5028     YY     -36.3440
        XZ      25.2556     YZ      -4.5424     ZZ     -35.1453

             Standard Nuclear Orientation (Angstroms)
    I     Atom           X                Y                Z
 ----------------------------------------------------------------
    1      C       0.5475600491    -0.1546811321    -0.0074698369
    2      C      -0.7680890371     0.0086818728    -0.2587589683
    3      H       0.9572314317    -1.1331063805     0.2119916664
    4      H       1.2553822635     0.6438658306    -0.1939727304
    5      H      -1.4707658223    -0.8105695124    -0.1402507804
    6      H      -1.1715034326     0.9748233234    -0.5465410580
    7      O       0.5041235572     0.3528896806     2.1617628480
    8      C       1.7311162934     0.2449127708     2.6455156956
    9      O       2.7197055899    -0.0983799469     1.9421030628
   10      O       1.8261335764     0.5173849900     3.8820377385
   11      Li      3.6661975811     0.1112111547     3.5770194933
 ----------------------------------------------------------------

 Frequency:      -344.53                  30.92                  77.26
 Force Cnst:      0.6628                 0.0013                 0.0246
 Red. Mass:       9.4772                 2.2920                 7.0005
 IR Intens:      930.136                  4.186                 28.279
 Frequency:       137.25                 142.77                 156.46
 Force Cnst:      0.0944                 0.0559                 0.0570
 Red. Mass:       8.5010                 4.6574                 3.9512
 IR Intens:       66.590                 18.947                  2.573
 Frequency:       292.38                 350.40                 527.86
 Force Cnst:      0.0563                 0.6291                 1.2413
 Red. Mass:       1.1184                 8.6966                 7.5613
 IR Intens:        0.060                 85.041                374.854
 Frequency:       539.25                 695.83                 823.81
 Force Cnst:      1.6959                 4.0424                 0.4229
 Red. Mass:       9.8986                14.1704                 1.0575
 IR Intens:      245.108                242.325                  3.257
 Frequency:       831.31                 978.45                 990.47
 Force Cnst:      4.3711                 0.7068                 0.8101
 Red. Mass:      10.7354                 1.2530                 1.4015
 IR Intens:       33.935                233.912                425.896
 Frequency:      1002.86                1056.30                1234.73
 Force Cnst:      0.6004                 5.1953                 1.3564
 Red. Mass:       1.0132                 7.9028                 1.5101
 IR Intens:        0.330                  6.707                  0.157
 Frequency:      1308.62                1394.04                1459.38
 Force Cnst:      1.6094                 7.3585                 1.3980
 Red. Mass:       1.5951                 6.4267                 1.1141
 IR Intens:      473.545               1226.690                 22.584
 Frequency:      1568.81                1604.30                3154.76
 Force Cnst:      8.5633                 4.3973                 6.1783
 Red. Mass:       5.9054                 2.8998                 1.0536
 IR Intens:      487.978                417.430                 42.092
 Frequency:      3179.60                3245.87                3280.09
 Force Cnst:      6.3110                 6.9411                 7.0952
 Red. Mass:       1.0595                 1.1182                 1.1193
 IR Intens:       70.693                  3.055                  3.758

 STANDARD THERMODYNAMIC QUANTITIES AT   298.15 K  AND     1.00 ATM

   This Molecule has  1 Imaginary Frequencies
   Zero point vibrational energy:       42.978 kcal/mol

   Atom    1 Element C  Has Mass   12.00000
   Atom    2 Element C  Has Mass   12.00000
   Atom    3 Element H  Has Mass    1.00783
   Atom    4 Element H  Has Mass    1.00783
   Atom    5 Element H  Has Mass    1.00783
   Atom    6 Element H  Has Mass    1.00783
   Atom    7 Element O  Has Mass   15.99491
   Atom    8 Element C  Has Mass   12.00000
   Atom    9 Element O  Has Mass   15.99491
   Atom   10 Element O  Has Mass   15.99491
   Atom   11 Element Li Has Mass    7.01600
   Molecular Mass:    95.032050 amu
   Principal axes and moments of inertia in amu*Bohr^2:
                             1           2           3
    Eigenvalues --      214.43991  1143.10795  1332.87161
          X               0.63668     0.75170     0.17200
          Y               0.06519    -0.27472     0.95931
          Z               0.76837    -0.59956    -0.22391
   Rotational Symmetry Number is   1
   The Molecule is an Asymmetric Top
   Translational Enthalpy:        0.889 kcal/mol
   Rotational Enthalpy:           0.889 kcal/mol
   Vibrational Enthalpy:         46.270 kcal/mol
   gas constant (RT):             0.592 kcal/mol
   Translational Entropy:        39.566  cal/mol.K
   Rotational Entropy:           27.282  cal/mol.K
   Vibrational Entropy:          22.873  cal/mol.K

   Total Enthalpy:               48.640 kcal/mol
   Total Entropy:                89.721  cal/mol.K

 Total job time:  5694.72s(wall), 145778.73s(cpu)
        *  Thank you very much for using Q-Chem.  Have a nice day.  *
