 Q-Chem 5.2, Q-Chem, Inc., Pleasanton, CA (2019)
 Q-Chem 5.2.2 for Intel X86 EM64T Linux

User input:
--------------------------------------------------------------
$molecule
-1 2
C     -0.0770445354     -0.2013779534      0.8366233242
C      1.4010474505     -0.0699084468      0.8220662946
O      2.0013481534     -1.2297671436      0.1077251689
C      3.3313072071     -1.2551441809     -0.0002655890
O      4.0441677100     -0.3240251042      0.4794362410
O      3.8386991755     -2.2476913897     -0.6030195002
Li      5.4553812693     -1.3667052153     -0.2165074004
H     -0.4532414012     -1.0766302083      1.3614875613
H     -0.5630820491     -0.0433305191     -0.1247659042
H      1.8217708949     -0.0702984874      1.8288534643
H      1.7308481864      0.8311221950      0.3018845970
O     -0.7090098770      1.0783326569      1.9459751147
H     -0.7233921843      1.8729437967      1.3829866277
$end

$rem
job_type = freq
basis = def2-tzvppd
max_scf_cycles = 200
gen_scfman = true
xc_grid = 3
scf_algorithm = diis
resp_charges = true
symmetry = false
sym_ignore = true
method = wb97xv
solvent_method = smd
ideriv = 1
thresh = 14
$end

$smx
solvent other
$end
--------------------------------------------------------------

   22    -425.8787118137      8.45e-09  Convergence criterion met
 Total energy in the final basis set =     -425.8844480361
   19    -425.8787091919      9.32e-09  Convergence criterion met
 Total energy in the final basis set =     -425.8844473398
   19    -425.8787131449      9.60e-09  Convergence criterion met
 Total energy in the final basis set =     -425.8844474317
   19    -425.8787107286      9.50e-09  Convergence criterion met
 Total energy in the final basis set =     -425.8844478583
   20    -425.8787124100      2.99e-09  Convergence criterion met
 Total energy in the final basis set =     -425.8844477158
   19    -425.8787106615      9.62e-09  Convergence criterion met
 Total energy in the final basis set =     -425.8844475928
   20    -425.8787119743      2.99e-09  Convergence criterion met
 Total energy in the final basis set =     -425.8844474777
   19    -425.8787117997      9.55e-09  Convergence criterion met
 Total energy in the final basis set =     -425.8844478998
   19    -425.8787122001      9.64e-09  Convergence criterion met
 Total energy in the final basis set =     -425.8844479769
   19    -425.8787116298      9.22e-09  Convergence criterion met
 Total energy in the final basis set =     -425.8844480232
   19    -425.8787119834      9.27e-09  Convergence criterion met
 Total energy in the final basis set =     -425.8844480349
   19    -425.8787114725      9.28e-09  Convergence criterion met
 Total energy in the final basis set =     -425.8844475203
   19    -425.8787110977      9.35e-09  Convergence criterion met
 Total energy in the final basis set =     -425.8844474950
   19    -425.8787117089      9.23e-09  Convergence criterion met
 Total energy in the final basis set =     -425.8844476931
   19    -425.8787112884      9.30e-09  Convergence criterion met
 Total energy in the final basis set =     -425.8844477485

                    Orbital Energies (a.u.)
 --------------------------------------------------------------

 Alpha MOs
 -- Occupied --
-19.2146 -19.1595 -19.1556 -19.1306 -10.3949 -10.2865 -10.2450  -2.0817
 -1.2157  -1.1145  -1.0717  -1.0106  -0.8534  -0.7081  -0.6489  -0.5821
 -0.5768  -0.5560  -0.5309  -0.4839  -0.4780  -0.4409  -0.4266  -0.4085
 -0.3867  -0.3796  -0.3630  -0.3567  -0.3279  -0.1112

 Beta MOs
 -- Occupied --
-19.2132 -19.1595 -19.1555 -19.1256 -10.3948 -10.2865 -10.2396  -2.0816
 -1.2145  -1.1126  -1.0715  -0.9976  -0.8460  -0.6984  -0.6454  -0.5805
 -0.5759  -0.5549  -0.5278  -0.4798  -0.4724  -0.4353  -0.4229  -0.4061
 -0.3788  -0.3645  -0.3622  -0.3558  -0.3219

          Ground-State Mulliken Net Atomic Charges

     Atom                 Charge (a.u.)    Spin (a.u.)
  --------------------------------------------------------
      1 C                    -0.622589       0.616643
      2 C                     0.081430       0.172552
      3 O                    -0.089190      -0.099083
      4 C                     0.410903       0.308388
      5 O                    -0.774500      -0.034498
      6 O                    -0.806335       0.001443
      7 Li                    0.876799      -0.007744
      8 H                     0.028655       0.028062
      9 H                     0.068342       0.037191
     10 H                     0.030980       0.006640
     11 H                     0.046860       0.001962
     12 O                    -0.473047       0.074378
     13 H                     0.221693      -0.105935
  --------------------------------------------------------
  Sum of atomic charges =    -1.000000

                    Cartesian Multipole Moments
 -----------------------------------------------------------------
    Charge (ESU x 10^10)
                -4.8032
    Dipole Moment (Debye)
         X       6.7980      Y      -3.5551      Z      -8.7251
       Tot      11.6181
    Quadrupole Moments (Debye-Ang)
        XX     -11.3379     XY       2.1659     YY     -67.0692
        XZ       6.6830     YZ     -17.4364     ZZ     -70.2492

             Standard Nuclear Orientation (Angstroms)
    I     Atom           X                Y                Z
 ----------------------------------------------------------------
    1      C      -0.0770445354    -0.2013779534     0.8366233242
    2      C       1.4010474505    -0.0699084468     0.8220662946
    3      O       2.0013481534    -1.2297671436     0.1077251689
    4      C       3.3313072071    -1.2551441809    -0.0002655890
    5      O       4.0441677100    -0.3240251042     0.4794362410
    6      O       3.8386991755    -2.2476913897    -0.6030195002
    7      Li      5.4553812693    -1.3667052153    -0.2165074004
    8      H      -0.4532414012    -1.0766302083     1.3614875613
    9      H      -0.5630820491    -0.0433305191    -0.1247659042
   10      H       1.8217708949    -0.0702984874     1.8288534643
   11      H       1.7308481864     0.8311221950     0.3018845970
   12      O      -0.7090098770     1.0783326569     1.9459751147
   13      H      -0.7233921843     1.8729437967     1.3829866277
 ----------------------------------------------------------------

 Frequency:     -1461.26                  57.28                  68.43
 Force Cnst:     15.2971                 0.0112                 0.0075
 Red. Mass:      12.1592                 5.7789                 2.7270
 IR Intens:    61166.872                  2.008                 15.584
 Frequency:       106.41                 126.12                 152.60
 Force Cnst:      0.0354                 0.0455                 0.0190
 Red. Mass:       5.3075                 4.8551                 1.3852
 IR Intens:       10.945                 89.383                 18.804
 Frequency:       187.74                 245.85                 347.84
 Force Cnst:      0.0873                 0.1332                 0.3505
 Red. Mass:       4.2061                 3.7403                 4.9169
 IR Intens:        8.229                  6.194                 33.243
 Frequency:       399.11                 556.27                 584.20
 Force Cnst:      0.7290                 1.2984                 1.6230
 Red. Mass:       7.7673                 7.1215                 8.0714
 IR Intens:       58.650                293.453                365.781
 Frequency:       674.14                 753.66                 810.68
 Force Cnst:      0.2916                 3.3159                 0.4689
 Red. Mass:       1.0889                 9.9083                 1.2110
 IR Intens:        2.083                 90.642                 98.092
 Frequency:       846.60                 856.66                 873.26
 Force Cnst:      2.8594                 2.3293                 0.5535
 Red. Mass:       6.7711                 5.3871                 1.2319
 IR Intens:      125.643               1671.266                101.081
 Frequency:       928.88                1079.34                1106.50
 Force Cnst:      0.6518                 7.3778                 2.2697
 Red. Mass:       1.2822                10.7488                 3.1464
 IR Intens:      548.525                327.209                277.601
 Frequency:      1189.84                1275.08                1309.86
 Force Cnst:      1.1838                 1.0652                 1.3932
 Red. Mass:       1.4192                 1.1120                 1.3782
 IR Intens:        2.137                 35.913               1288.285
 Frequency:      1448.73                1467.93                1488.66
 Force Cnst:      2.4601                 1.9286                 1.6576
 Red. Mass:       1.9894                 1.5191                 1.2695
 IR Intens:      576.759                126.057                184.228
 Frequency:      1590.61                3082.92                3116.45
 Force Cnst:     19.1369                 5.9124                 6.0337
 Red. Mass:      12.8379                 1.0558                 1.0544
 IR Intens:      838.982                496.975                293.279
 Frequency:      3141.45                3190.29                3558.50
 Force Cnst:      6.4535                 6.6744                 7.9900
 Red. Mass:       1.1099                 1.1130                 1.0709
 IR Intens:        7.271                 92.639               4655.656

 STANDARD THERMODYNAMIC QUANTITIES AT   298.15 K  AND     1.00 ATM

   This Molecule has  1 Imaginary Frequencies
   Zero point vibrational energy:       52.354 kcal/mol

   Atom    1 Element C  Has Mass   12.00000
   Atom    2 Element C  Has Mass   12.00000
   Atom    3 Element O  Has Mass   15.99491
   Atom    4 Element C  Has Mass   12.00000
   Atom    5 Element O  Has Mass   15.99491
   Atom    6 Element O  Has Mass   15.99491
   Atom    7 Element Li Has Mass    7.01600
   Atom    8 Element H  Has Mass    1.00783
   Atom    9 Element H  Has Mass    1.00783
   Atom   10 Element H  Has Mass    1.00783
   Atom   11 Element H  Has Mass    1.00783
   Atom   12 Element O  Has Mass   15.99491
   Atom   13 Element H  Has Mass    1.00783
   Molecular Mass:   112.034790 amu
   Principal axes and moments of inertia in amu*Bohr^2:
                             1           2           3
    Eigenvalues --      228.30476  1945.71547  2142.96501
          X               0.86188     0.50234     0.06936
          Y              -0.39582     0.75191    -0.52721
          Z              -0.31699     0.42694     0.84690
   Rotational Symmetry Number is   1
   The Molecule is an Asymmetric Top
   Translational Enthalpy:        0.889 kcal/mol
   Rotational Enthalpy:           0.889 kcal/mol
   Vibrational Enthalpy:         56.374 kcal/mol
   gas constant (RT):             0.592 kcal/mol
   Translational Entropy:        40.057  cal/mol.K
   Rotational Entropy:           28.344  cal/mol.K
   Vibrational Entropy:          26.565  cal/mol.K

   Total Enthalpy:               58.743 kcal/mol
   Total Entropy:                94.966  cal/mol.K

 Total job time:  11137.09s(wall), 288346.72s(cpu)
        *  Thank you very much for using Q-Chem.  Have a nice day.  *
