 Q-Chem 5.2, Q-Chem, Inc., Pleasanton, CA (2019)
 Q-Chem 5.2.2 for Intel X86 EM64T Linux

User input:
--------------------------------------------------------------
$molecule
0 2
O      0.5304065220     -0.0265723826     -0.8268946928
C     -0.6669531272      0.5365184776     -0.4819080819
C      1.8580043798     -0.5334526641      0.9728291698
O     -1.2218927332      0.8706232989     -1.5889473251
O     -1.0599597951      0.6475077541      0.6642512962
C      2.2980685811      0.7337063757      1.0358122904
H      2.4111853630     -1.2931688715      0.4304176551
H      0.9918176028     -0.8563923599      1.5379169265
H      1.7630701508      1.4883707494      1.6033166067
H      3.1900372448      1.0474359352      0.5015115399
Li      0.3465056450      0.8537004183     -2.5882851196
$end

$rem
job_type = freq
basis = def2-tzvppd
max_scf_cycles = 200
gen_scfman = true
xc_grid = 3
scf_algorithm = diis
resp_charges = true
symmetry = false
sym_ignore = true
method = wb97xv
solvent_method = smd
ideriv = 1
thresh = 14
$end

$smx
solvent other
$end
--------------------------------------------------------------

   20    -349.9469564996      9.17e-09  Convergence criterion met
 Total energy in the final basis set =     -349.9495740693
   15    -349.9469574762      9.59e-09  Convergence criterion met
 Total energy in the final basis set =     -349.9495737772
   15    -349.9469548485      9.59e-09  Convergence criterion met
 Total energy in the final basis set =     -349.9495736795
   15    -349.9469567795      9.45e-09  Convergence criterion met
 Total energy in the final basis set =     -349.9495738693
   16    -349.9469559647      4.39e-09  Convergence criterion met
 Total energy in the final basis set =     -349.9495740114
   15    -349.9469561693      9.46e-09  Convergence criterion met
 Total energy in the final basis set =     -349.9495738790
   15    -349.9469564610      9.37e-09  Convergence criterion met
 Total energy in the final basis set =     -349.9495738884
   15    -349.9469521097      9.46e-09  Convergence criterion met
 Total energy in the final basis set =     -349.9495738703
   15    -349.9469560579      9.41e-09  Convergence criterion met
 Total energy in the final basis set =     -349.9495738821
   15    -349.9469561669      9.41e-09  Convergence criterion met
 Total energy in the final basis set =     -349.9495739701
   15    -349.9469567124      9.45e-09  Convergence criterion met
 Total energy in the final basis set =     -349.9495740485
   15    -349.9469560826      9.41e-09  Convergence criterion met
 Total energy in the final basis set =     -349.9495739973
   15    -349.9469568936      9.41e-09  Convergence criterion met
 Total energy in the final basis set =     -349.9495741188
   15    -349.9469563632      9.44e-09  Convergence criterion met
 Total energy in the final basis set =     -349.9495740375
   15    -349.9469564893      9.45e-09  Convergence criterion met
 Total energy in the final basis set =     -349.9495739550

                    Orbital Energies (a.u.)
 --------------------------------------------------------------

 Alpha MOs
 -- Occupied --
-19.2541 -19.1898 -19.1655 -10.4040 -10.2813 -10.2786  -2.1127  -1.2291
 -1.1123  -1.0918  -0.9026  -0.7077  -0.6522  -0.5939  -0.5779  -0.5736
 -0.5691  -0.5317  -0.4892  -0.4607  -0.4277  -0.4144  -0.3872  -0.3665
 -0.3568

 Beta MOs
 -- Occupied --
-19.2389 -19.1855 -19.1655 -10.4044 -10.2813 -10.2755  -2.1128  -1.2142
 -1.1040  -1.0628  -0.8941  -0.7028  -0.6341  -0.5900  -0.5683  -0.5648
 -0.5466  -0.5286  -0.4601  -0.4328  -0.4046  -0.3862  -0.3803  -0.3437

          Ground-State Mulliken Net Atomic Charges

     Atom                 Charge (a.u.)    Spin (a.u.)
  --------------------------------------------------------
      1 O                    -0.503956       0.621556
      2 C                     0.729664      -0.034458
      3 C                     0.027368      -0.009692
      4 O                    -0.751271       0.174710
      5 O                    -0.545879      -0.002271
      6 C                    -0.228325       0.244424
      7 H                     0.092995       0.001831
      8 H                     0.093944      -0.001042
      9 H                     0.119595       0.003337
     10 H                     0.095525      -0.000267
     11 Li                    0.870340       0.001871
  --------------------------------------------------------
  Sum of atomic charges =    -0.000000

                    Cartesian Multipole Moments
 -----------------------------------------------------------------
    Charge (ESU x 10^10)
                -0.0000
    Dipole Moment (Debye)
         X       6.9002      Y       0.5557      Z      -6.3592
       Tot       9.4000
    Quadrupole Moments (Debye-Ang)
        XX     -40.1927     XY       6.4048     YY     -34.8469
        XZ      -6.2789     YZ      -6.3971     ZZ     -19.4231

             Standard Nuclear Orientation (Angstroms)
    I     Atom           X                Y                Z
 ----------------------------------------------------------------
    1      O       0.5304065220    -0.0265723826    -0.8268946928
    2      C      -0.6669531272     0.5365184776    -0.4819080819
    3      C       1.8580043798    -0.5334526641     0.9728291698
    4      O      -1.2218927332     0.8706232989    -1.5889473251
    5      O      -1.0599597951     0.6475077541     0.6642512962
    6      C       2.2980685811     0.7337063757     1.0358122904
    7      H       2.4111853630    -1.2931688715     0.4304176551
    8      H       0.9918176028    -0.8563923599     1.5379169265
    9      H       1.7630701508     1.4883707494     1.6033166067
   10      H       3.1900372448     1.0474359352     0.5015115399
   11      Li      0.3465056450     0.8537004183    -2.5882851196
 ----------------------------------------------------------------

 Frequency:      -283.24                  58.37                  73.85
 Force Cnst:      0.3565                 0.0080                 0.0109
 Red. Mass:       7.5424                 3.9973                 3.4073
 IR Intens:      816.486                 26.788                  2.212
 Frequency:       107.49                 125.92                 143.60
 Force Cnst:      0.0263                 0.0883                 0.0493
 Red. Mass:       3.8566                 9.4496                 4.0608
 IR Intens:        9.992                 48.859                 26.692
 Frequency:       280.01                 314.97                 435.32
 Force Cnst:      0.0784                 0.1378                 0.8931
 Red. Mass:       1.6981                 2.3567                 7.9992
 IR Intens:        7.623                  3.947                498.171
 Frequency:       588.07                 662.95                 818.48
 Force Cnst:      2.0876                 3.3952                 4.9421
 Red. Mass:      10.2455                13.1115                12.5213
 IR Intens:      160.067                113.709                 31.891
 Frequency:       824.03                 928.60                 986.98
 Force Cnst:      0.4170                 3.7814                 0.7439
 Red. Mass:       1.0424                 7.4430                 1.2961
 IR Intens:        1.246                114.967                154.755
 Frequency:      1009.00                1022.18                1237.29
 Force Cnst:      0.6212                 0.8102                 1.3645
 Red. Mass:       1.0356                 1.3160                 1.5128
 IR Intens:       37.037                233.439                  1.683
 Frequency:      1246.94                1343.41                1460.09
 Force Cnst:     11.9991                 1.3960                 1.3976
 Red. Mass:      13.0981                 1.3129                 1.1127
 IR Intens:      546.767                 59.087                 26.889
 Frequency:      1620.83                1740.65                3155.16
 Force Cnst:      4.3124                20.3427                 6.1677
 Red. Mass:       2.7861                11.3956                 1.0515
 IR Intens:      414.095                686.262                 22.018
 Frequency:      3172.94                3245.37                3271.83
 Force Cnst:      6.3220                 6.9321                 7.0548
 Red. Mass:       1.0658                 1.1171                 1.1185
 IR Intens:       76.955                  1.947                  4.832

 STANDARD THERMODYNAMIC QUANTITIES AT   298.15 K  AND     1.00 ATM

   This Molecule has  1 Imaginary Frequencies
   Zero point vibrational energy:       42.707 kcal/mol

   Atom    1 Element O  Has Mass   15.99491
   Atom    2 Element C  Has Mass   12.00000
   Atom    3 Element C  Has Mass   12.00000
   Atom    4 Element O  Has Mass   15.99491
   Atom    5 Element O  Has Mass   15.99491
   Atom    6 Element C  Has Mass   12.00000
   Atom    7 Element H  Has Mass    1.00783
   Atom    8 Element H  Has Mass    1.00783
   Atom    9 Element H  Has Mass    1.00783
   Atom   10 Element H  Has Mass    1.00783
   Atom   11 Element Li Has Mass    7.01600
   Molecular Mass:    95.032050 amu
   Principal axes and moments of inertia in amu*Bohr^2:
                             1           2           3
    Eigenvalues --      342.23136   909.69399  1104.98355
          X               0.78286    -0.59972     0.16573
          Y              -0.17143     0.04816     0.98402
          Z               0.59812     0.79876     0.06511
   Rotational Symmetry Number is   1
   The Molecule is an Asymmetric Top
   Translational Enthalpy:        0.889 kcal/mol
   Rotational Enthalpy:           0.889 kcal/mol
   Vibrational Enthalpy:         46.117 kcal/mol
   gas constant (RT):             0.592 kcal/mol
   Translational Entropy:        39.566  cal/mol.K
   Rotational Entropy:           27.333  cal/mol.K
   Vibrational Entropy:          23.069  cal/mol.K

   Total Enthalpy:               48.487 kcal/mol
   Total Entropy:                89.968  cal/mol.K

 Total job time:  4961.58s(wall), 130654.53s(cpu)
        *  Thank you very much for using Q-Chem.  Have a nice day.  *
