 Q-Chem 5.2, Q-Chem, Inc., Pleasanton, CA (2019)
 Q-Chem 5.2.2 for Intel X86 EM64T Linux

User input:
--------------------------------------------------------------
$molecule
0 1
C     -1.1489248525      0.2900793983     -0.8067383679
C     -1.1119454191      0.5818973472      0.6789568808
O      0.1671010725      1.2378939996      0.9861361818
C      0.9399286687      1.2746740154     -0.0697996354
O      0.4229825921      0.7676701635     -1.1572760136
O      2.0785262938      1.7499376605     -0.0734846796
O     -3.1764417702     -0.2829043757     -0.2759258599
Li      2.1957983311      1.3285830755     -1.9405584801
H     -1.0812768856     -0.7350347064     -1.1310686469
H     -1.6781742438      0.9723208499     -1.4506722591
H     -1.1530609306     -0.3258214598      1.2733164427
H     -1.8954643540      1.2709228611      0.9748429659
H     -3.4321885025     -0.9002288292     -0.9667185286
$end

$rem
job_type = freq
basis = def2-tzvppd
max_scf_cycles = 200
gen_scfman = true
xc_grid = 3
scf_algorithm = diis
resp_charges = true
symmetry = false
sym_ignore = true
method = wb97xv
solvent_method = smd
ideriv = 1
thresh = 14
$end

$smx
solvent other
$end
--------------------------------------------------------------

   15    -425.8019062703      5.77e-09  Convergence criterion met
 Total energy in the final basis set =     -425.8069003510
   13    -425.8019062585      2.84e-09  Convergence criterion met
 Total energy in the final basis set =     -425.8069001891
   13    -425.8019060487      2.80e-09  Convergence criterion met
 Total energy in the final basis set =     -425.8069002731
   13    -425.8019047681      2.85e-09  Convergence criterion met
 Total energy in the final basis set =     -425.8068991643
   13    -425.8019053987      2.81e-09  Convergence criterion met
 Total energy in the final basis set =     -425.8068991477
   13    -425.8019035493      2.86e-09  Convergence criterion met
 Total energy in the final basis set =     -425.8068993168
   13    -425.8019069202      2.82e-09  Convergence criterion met
 Total energy in the final basis set =     -425.8068993059
   13    -425.8019053556      2.83e-09  Convergence criterion met
 Total energy in the final basis set =     -425.8069002323
   13    -425.8019066012      2.83e-09  Convergence criterion met
 Total energy in the final basis set =     -425.8069001989
   13    -425.8019059487      2.82e-09  Convergence criterion met
 Total energy in the final basis set =     -425.8069002672
   13    -425.8019064259      2.84e-09  Convergence criterion met
 Total energy in the final basis set =     -425.8069002691
   13    -425.8019057981      2.81e-09  Convergence criterion met
 Total energy in the final basis set =     -425.8068999700
   13    -425.8019059539      2.84e-09  Convergence criterion met
 Total energy in the final basis set =     -425.8068999436
   13    -425.8019058690      2.81e-09  Convergence criterion met
 Total energy in the final basis set =     -425.8068998453
   13    -425.8019056818      2.84e-09  Convergence criterion met
 Total energy in the final basis set =     -425.8068998671

                    Orbital Energies (a.u.)
 --------------------------------------------------------------

 Alpha MOs
 -- Occupied --
-19.2759 -19.2587 -19.2181 -19.0874 -10.4591 -10.3424 -10.3303  -2.1375
 -1.2984  -1.1858  -1.1586  -0.9738  -0.8973  -0.7929  -0.7123  -0.6511
 -0.6361  -0.6125  -0.5678  -0.5564  -0.5291  -0.5009  -0.4871  -0.4389
 -0.4377  -0.4299  -0.4192  -0.3034  -0.3002

          Ground-State Mulliken Net Atomic Charges

     Atom                 Charge (a.u.)
  ----------------------------------------
      1 C                     0.119744
      2 C                     0.144030
      3 O                    -0.259160
      4 C                     0.792030
      5 O                    -0.540084
      6 O                    -0.704915
      7 O                    -0.829895
      8 Li                    0.891671
      9 H                     0.105937
     10 H                     0.118900
     11 H                     0.042755
     12 H                     0.056654
     13 H                     0.062333
  ----------------------------------------
  Sum of atomic charges =     0.000000

                    Cartesian Multipole Moments
 -----------------------------------------------------------------
    Charge (ESU x 10^10)
                -0.0000
    Dipole Moment (Debye)
         X      11.8803      Y       1.9305      Z      -7.3887
       Tot      14.1231
    Quadrupole Moments (Debye-Ang)
        XX     -65.7061     XY       1.0488     YY     -41.3225
        XZ     -15.7046     YZ      -9.1632     ZZ     -28.1529

             Standard Nuclear Orientation (Angstroms)
    I     Atom           X                Y                Z
 ----------------------------------------------------------------
    1      C      -1.1489248525     0.2900793983    -0.8067383679
    2      C      -1.1119454191     0.5818973472     0.6789568808
    3      O       0.1671010725     1.2378939996     0.9861361818
    4      C       0.9399286687     1.2746740154    -0.0697996354
    5      O       0.4229825921     0.7676701635    -1.1572760136
    6      O       2.0785262938     1.7499376605    -0.0734846796
    7      O      -3.1764417702    -0.2829043757    -0.2759258599
    8      Li      2.1957983311     1.3285830755    -1.9405584801
    9      H      -1.0812768856    -0.7350347064    -1.1310686469
   10      H      -1.6781742438     0.9723208499    -1.4506722591
   11      H      -1.1530609306    -0.3258214598     1.2733164427
   12      H      -1.8954643540     1.2709228611     0.9748429659
   13      H      -3.4321885025    -0.9002288292    -0.9667185286
 ----------------------------------------------------------------

 Frequency:      -526.44                  68.25                 100.27
 Force Cnst:      1.6883                 0.0095                 0.0080
 Red. Mass:      10.3393                 3.4517                 1.3469
 IR Intens:     1597.648                 59.573                100.708
 Frequency:       107.79                 174.02                 182.61
 Force Cnst:      0.0206                 0.0897                 0.1261
 Red. Mass:       3.0113                 5.0279                 6.4198
 IR Intens:       28.317                 32.719                 16.540
 Frequency:       237.80                 294.32                 335.41
 Force Cnst:      0.2126                 0.1754                 0.5980
 Red. Mass:       6.3821                 3.4376                 9.0221
 IR Intens:      139.604                 17.692                 10.755
 Frequency:       474.47                 526.48                 582.98
 Force Cnst:      0.9475                 0.1924                 1.5782
 Red. Mass:       7.1434                 1.1782                 7.8814
 IR Intens:      159.351                 91.385                 82.024
 Frequency:       705.37                 780.28                 813.59
 Force Cnst:      1.8360                 4.3435                 3.1398
 Red. Mass:       6.2631                12.1085                 8.0508
 IR Intens:       68.753                 26.795                 45.910
 Frequency:       852.64                 929.04                1079.80
 Force Cnst:      0.5056                 5.0193                 1.9757
 Red. Mass:       1.1805                 9.8701                 2.8759
 IR Intens:        1.265                 66.447                 66.709
 Frequency:      1122.86                1139.43                1171.14
 Force Cnst:      3.6199                 0.8860                 1.1057
 Red. Mass:       4.8729                 1.1583                 1.3682
 IR Intens:      187.621                  2.157                  3.034
 Frequency:      1220.36                1254.12                1341.90
 Force Cnst:      1.1803                 1.0032                 1.5254
 Red. Mass:       1.3451                 1.0826                 1.4378
 IR Intens:       92.427                  4.432                 77.865
 Frequency:      1465.63                1489.09                1504.27
 Force Cnst:      1.5644                 3.4027                 1.6798
 Red. Mass:       1.2361                 2.6045                 1.2599
 IR Intens:        8.279                251.079                 79.735
 Frequency:      1716.77                3162.74                3229.53
 Force Cnst:     21.1542                 6.2412                 6.4819
 Red. Mass:      12.1821                 1.0590                 1.0548
 IR Intens:     1209.114                  7.938                  2.766
 Frequency:      3231.32                3341.34                3858.81
 Force Cnst:      6.8557                 7.4075                 9.3620
 Red. Mass:       1.1144                 1.1261                 1.0671
 IR Intens:        3.704                  0.369                  1.718

 STANDARD THERMODYNAMIC QUANTITIES AT   298.15 K  AND     1.00 ATM

   This Molecule has  1 Imaginary Frequencies
   Zero point vibrational energy:       55.031 kcal/mol

   Atom    1 Element C  Has Mass   12.00000
   Atom    2 Element C  Has Mass   12.00000
   Atom    3 Element O  Has Mass   15.99491
   Atom    4 Element C  Has Mass   12.00000
   Atom    5 Element O  Has Mass   15.99491
   Atom    6 Element O  Has Mass   15.99491
   Atom    7 Element O  Has Mass   15.99491
   Atom    8 Element Li Has Mass    7.01600
   Atom    9 Element H  Has Mass    1.00783
   Atom   10 Element H  Has Mass    1.00783
   Atom   11 Element H  Has Mass    1.00783
   Atom   12 Element H  Has Mass    1.00783
   Atom   13 Element H  Has Mass    1.00783
   Molecular Mass:   112.034790 amu
   Principal axes and moments of inertia in amu*Bohr^2:
                             1           2           3
    Eigenvalues --      304.64431  1341.98203  1621.02278
          X               0.93649    -0.01843    -0.35021
          Y               0.34526     0.22362     0.91148
          Z              -0.06152     0.97450    -0.21578
   Rotational Symmetry Number is   1
   The Molecule is an Asymmetric Top
   Translational Enthalpy:        0.889 kcal/mol
   Rotational Enthalpy:           0.889 kcal/mol
   Vibrational Enthalpy:         58.731 kcal/mol
   gas constant (RT):             0.592 kcal/mol
   Translational Entropy:        40.057  cal/mol.K
   Rotational Entropy:           27.985  cal/mol.K
   Vibrational Entropy:          23.329  cal/mol.K

   Total Enthalpy:               61.101 kcal/mol
   Total Entropy:                91.370  cal/mol.K

 Total job time:  8521.21s(wall), 231066.11s(cpu)
        *  Thank you very much for using Q-Chem.  Have a nice day.  *
