 Q-Chem 5.2, Q-Chem, Inc., Pleasanton, CA (2019)
 Q-Chem 5.2.2 for Intel X86 EM64T Linux

User input:
--------------------------------------------------------------
$molecule
0 2
O     -4.0730070176      0.1143995258     -0.0270347663
C     -2.8320332920     -0.0299588807     -0.5468396598
O     -2.1162730264      1.0313198515     -0.6926704648
O     -2.2666773785     -1.2351020197     -0.2908166221
C     -1.3947048742     -1.3206830156      1.1811634617
O      0.8744740906     -1.4261541492      1.9007023503
C      2.2021340335     -1.4326781589      1.6930525938
C      0.0314453458     -1.2877672213      0.7301081886
O      2.6691620907     -1.3264416766      0.5249799995
O      2.9304762220     -1.5499983865      2.7163517265
Li     -3.6262931223      1.9108524299     -0.0813347916
Li      4.3281157725     -1.4595548495      1.4436582944
H     -1.6971023060     -2.2668643487      1.6281134349
H     -1.7032774959     -0.4609044654      1.7735298761
H      0.2410363044     -2.1103759795      0.0425390907
H      0.2576173675     -0.3440445531      0.2316516869
Li     -4.0707427142     -1.6863941025      0.2138656013
$end

$rem
job_type = freq
basis = def2-tzvppd
max_scf_cycles = 200
gen_scfman = true
xc_grid = 3
scf_algorithm = diis
resp_charges = true
symmetry = false
sym_ignore = true
method = wb97xv
solvent_method = smd
ideriv = 1
thresh = 14
$end

$smx
solvent other
$end
--------------------------------------------------------------

   17    -628.9734379757      6.27e-09  Convergence criterion met
 Total energy in the final basis set =     -628.9781207643
   15    -628.9734371794      7.54e-09  Convergence criterion met
 Total energy in the final basis set =     -628.9781201825
   15    -628.9734376037      7.82e-09  Convergence criterion met
 Total energy in the final basis set =     -628.9781201629
   15    -628.9734376384      7.54e-09  Convergence criterion met
 Total energy in the final basis set =     -628.9781203896
   15    -628.9734376062      7.63e-09  Convergence criterion met
 Total energy in the final basis set =     -628.9781204306
   15    -628.9734387969      7.77e-09  Convergence criterion met
 Total energy in the final basis set =     -628.9781206713
   15    -628.9734369723      7.22e-09  Convergence criterion met
 Total energy in the final basis set =     -628.9781206735
   15    -628.9734375371      7.63e-09  Convergence criterion met
 Total energy in the final basis set =     -628.9781205610
   15    -628.9734379020      7.63e-09  Convergence criterion met
 Total energy in the final basis set =     -628.9781205563
   15    -628.9734376809      7.63e-09  Convergence criterion met
 Total energy in the final basis set =     -628.9781206897
   15    -628.9734381485      7.66e-09  Convergence criterion met
 Total energy in the final basis set =     -628.9781207169
   15    -628.9734378862      7.64e-09  Convergence criterion met
 Total energy in the final basis set =     -628.9781206487
   15    -628.9734378261      7.61e-09  Convergence criterion met
 Total energy in the final basis set =     -628.9781206406
   15    -628.9734381004      7.66e-09  Convergence criterion met
 Total energy in the final basis set =     -628.9781207317
   15    -628.9734378257      7.64e-09  Convergence criterion met
 Total energy in the final basis set =     -628.9781207719

                    Orbital Energies (a.u.)
 --------------------------------------------------------------

 Alpha MOs
 -- Occupied --
-19.2361 -19.2095 -19.1734 -19.1690 -19.1532 -19.1431 -10.4097 -10.3597
-10.3068 -10.2882  -2.0937  -2.0820  -2.0676  -1.2348  -1.1806  -1.1359
 -1.0880  -1.0781  -1.0442  -0.8851  -0.7493  -0.6747  -0.6367  -0.6043
 -0.5910  -0.5768  -0.5630  -0.5541  -0.5417  -0.5267  -0.5038  -0.4673
 -0.4542  -0.4383  -0.4206  -0.4105  -0.3966  -0.3875  -0.3768  -0.3702
 -0.3659  -0.3517  -0.1696

 Beta MOs
 -- Occupied --
-19.2355 -19.2091 -19.1733 -19.1690 -19.1513 -19.1408 -10.4096 -10.3538
-10.3070 -10.2824  -2.0937  -2.0819  -2.0674  -1.2342  -1.1740  -1.1350
 -1.0879  -1.0740  -1.0383  -0.8775  -0.7397  -0.6716  -0.6267  -0.6012
 -0.5904  -0.5752  -0.5582  -0.5438  -0.5363  -0.5170  -0.4998  -0.4638
 -0.4510  -0.4289  -0.4184  -0.4077  -0.3960  -0.3847  -0.3767  -0.3699
 -0.3508  -0.3493

          Ground-State Mulliken Net Atomic Charges

     Atom                 Charge (a.u.)    Spin (a.u.)
  --------------------------------------------------------
      1 O                    -1.008180       0.025779
      2 C                     0.648753       0.629614
      3 O                    -0.848082       0.051583
      4 O                    -0.473509      -0.213337
      5 C                    -0.099637       0.462023
      6 O                    -0.167446      -0.007956
      7 C                     0.655178       0.008248
      8 C                     0.104205      -0.024583
      9 O                    -0.798286      -0.000806
     10 O                    -0.792652       0.002106
     11 Li                    0.814489       0.010623
     12 Li                    0.874562       0.000203
     13 H                     0.102195       0.003024
     14 H                     0.064290       0.008437
     15 H                     0.082038       0.004133
     16 H                     0.027876       0.008690
     17 Li                    0.814208       0.032220
  --------------------------------------------------------
  Sum of atomic charges =     0.000000

                    Cartesian Multipole Moments
 -----------------------------------------------------------------
    Charge (ESU x 10^10)
                 0.0000
    Dipole Moment (Debye)
         X      -2.2675      Y      -0.4772      Z       1.3706
       Tot       2.6922
    Quadrupole Moments (Debye-Ang)
        XX       7.4247     XY      -2.7018     YY     -43.8153
        XZ      -8.0584     YZ       2.9666     ZZ     -82.0725

             Standard Nuclear Orientation (Angstroms)
    I     Atom           X                Y                Z
 ----------------------------------------------------------------
    1      O      -4.0730070176     0.1143995258    -0.0270347663
    2      C      -2.8320332920    -0.0299588807    -0.5468396598
    3      O      -2.1162730264     1.0313198515    -0.6926704648
    4      O      -2.2666773785    -1.2351020197    -0.2908166221
    5      C      -1.3947048742    -1.3206830156     1.1811634617
    6      O       0.8744740906    -1.4261541492     1.9007023503
    7      C       2.2021340335    -1.4326781589     1.6930525938
    8      C       0.0314453458    -1.2877672213     0.7301081886
    9      O       2.6691620907    -1.3264416766     0.5249799995
   10      O       2.9304762220    -1.5499983865     2.7163517265
   11      Li     -3.6262931223     1.9108524299    -0.0813347916
   12      Li      4.3281157725    -1.4595548495     1.4436582944
   13      H      -1.6971023060    -2.2668643487     1.6281134349
   14      H      -1.7032774959    -0.4609044654     1.7735298761
   15      H       0.2410363044    -2.1103759795     0.0425390907
   16      H       0.2576173675    -0.3440445531     0.2316516869
   17      Li     -4.0707427142    -1.6863941025     0.2138656013
 ----------------------------------------------------------------

 Frequency:     -1187.83                  21.93                  45.66
 Force Cnst:     10.7438                 0.0024                 0.0109
 Red. Mass:      12.9241                 8.3850                 8.8681
 IR Intens:     5449.420                 19.227                  1.157
 Frequency:        64.32                  66.48                 114.13
 Force Cnst:      0.0172                 0.0124                 0.0553
 Red. Mass:       7.0581                 4.7522                 7.2063
 IR Intens:       36.643                 22.455                100.045
 Frequency:       118.87                 128.55                 134.56
 Force Cnst:      0.0480                 0.0476                 0.0796
 Red. Mass:       5.7702                 4.8912                 7.4606
 IR Intens:        8.377                 35.457                 74.978
 Frequency:       179.74                 216.37                 261.64
 Force Cnst:      0.0970                 0.1442                 0.2355
 Red. Mass:       5.0986                 5.2286                 5.8387
 IR Intens:       18.388                 12.919                 38.984
 Frequency:       343.58                 366.16                 393.26
 Force Cnst:      0.3958                 0.6125                 0.6493
 Red. Mass:       5.6904                 7.7539                 7.1259
 IR Intens:       29.695                142.638                 39.265
 Frequency:       447.60                 534.64                 546.79
 Force Cnst:      1.0324                 1.3844                 1.2691
 Red. Mass:       8.7461                 8.2201                 7.2045
 IR Intens:        9.460                129.068                235.964
 Frequency:       550.45                 616.39                 656.33
 Force Cnst:      1.3207                 1.8758                 1.9931
 Red. Mass:       7.3980                 8.3795                 7.8531
 IR Intens:      216.560                 65.765                 59.774
 Frequency:       720.90                 741.89                 761.29
 Force Cnst:      2.8995                 0.8010                 1.5475
 Red. Mass:       9.4696                 2.4700                 4.5318
 IR Intens:      156.489                 28.059                 26.449
 Frequency:       794.31                 843.35                 877.94
 Force Cnst:      1.0283                 4.4605                 0.9223
 Red. Mass:       2.7662                10.6442                 2.0309
 IR Intens:       30.936                 37.673                 42.600
 Frequency:       980.36                 990.50                1106.02
 Force Cnst:      1.3767                 3.0103                 4.5236
 Red. Mass:       2.4311                 5.2076                 6.2763
 IR Intens:       79.797                  7.543                116.721
 Frequency:      1115.62                1129.35                1204.89
 Force Cnst:      1.0639                 2.7381                 1.1885
 Red. Mass:       1.4508                 3.6436                 1.3894
 IR Intens:       74.271                231.657                  3.267
 Frequency:      1222.52                1294.47                1357.23
 Force Cnst:      5.6334                 1.0985                 1.7827
 Red. Mass:       6.3975                 1.1127                 1.6426
 IR Intens:      442.851                  1.065                578.568
 Frequency:      1432.83                1452.55                1477.97
 Force Cnst:     10.4275                 3.9592                 1.6345
 Red. Mass:       8.6206                 3.1849                 1.2700
 IR Intens:      701.246                667.058                  5.083
 Frequency:      1510.06                1622.35                3088.62
 Force Cnst:      1.5853                19.8403                 5.9480
 Red. Mass:       1.1800                12.7940                 1.0583
 IR Intens:       43.552                903.756                 21.703
 Frequency:      3113.90                3147.24                3195.35
 Force Cnst:      6.0265                 6.4678                 6.7039
 Red. Mass:       1.0549                 1.1083                 1.1144
 IR Intens:       22.827                 11.691                 28.326

 STANDARD THERMODYNAMIC QUANTITIES AT   298.15 K  AND     1.00 ATM

   This Molecule has  1 Imaginary Frequencies
   Zero point vibrational energy:       58.597 kcal/mol

   Atom    1 Element O  Has Mass   15.99491
   Atom    2 Element C  Has Mass   12.00000
   Atom    3 Element O  Has Mass   15.99491
   Atom    4 Element O  Has Mass   15.99491
   Atom    5 Element C  Has Mass   12.00000
   Atom    6 Element O  Has Mass   15.99491
   Atom    7 Element C  Has Mass   12.00000
   Atom    8 Element C  Has Mass   12.00000
   Atom    9 Element O  Has Mass   15.99491
   Atom   10 Element O  Has Mass   15.99491
   Atom   11 Element Li Has Mass    7.01600
   Atom   12 Element Li Has Mass    7.01600
   Atom   13 Element H  Has Mass    1.00783
   Atom   14 Element H  Has Mass    1.00783
   Atom   15 Element H  Has Mass    1.00783
   Atom   16 Element H  Has Mass    1.00783
   Atom   17 Element Li Has Mass    7.01600
   Molecular Mass:   169.048780 amu
   Principal axes and moments of inertia in amu*Bohr^2:
                             1           2           3
    Eigenvalues --      639.91853  5024.94021  5248.90464
          X               0.92315     0.36418    -0.12318
          Y              -0.23968     0.79570     0.55624
          Z               0.30059    -0.48397     0.82184
   Rotational Symmetry Number is   1
   The Molecule is an Asymmetric Top
   Translational Enthalpy:        0.889 kcal/mol
   Rotational Enthalpy:           0.889 kcal/mol
   Vibrational Enthalpy:         65.238 kcal/mol
   gas constant (RT):             0.592 kcal/mol
   Translational Entropy:        41.283  cal/mol.K
   Rotational Entropy:           31.201  cal/mol.K
   Vibrational Entropy:          46.580  cal/mol.K

   Total Enthalpy:               67.608 kcal/mol
   Total Entropy:               119.064  cal/mol.K

 Total job time:  37851.07s(wall), 853854.02s(cpu)
        *  Thank you very much for using Q-Chem.  Have a nice day.  *
