 Q-Chem 5.2, Q-Chem, Inc., Pleasanton, CA (2019)
 Q-Chem 5.2.0 for Intel X86 EM64T Linux

User input:
--------------------------------------------------------------
$molecule
-1 1
O     -0.6476449777      0.0451305667      1.1759139822
C     -0.6654557126     -0.2666753180     -0.0616222150
O      0.4346119692     -0.5211131676     -0.7333803419
O     -1.7781040451     -0.3548452790     -0.6856962061
Li     -2.4968088537      0.1498919248      0.9551905439
C      1.8207509203     -0.1583562663     -0.0393154973
C      2.2240249086      1.2262262684     -0.1247135739
H      1.6582521617     -0.5527417940      0.9645956636
H      2.4399260016     -0.8503729336     -0.6161557163
H      3.0396967041      1.4752110615     -0.8042558204
H      2.1736930080      1.8319287364      0.7806303305
$end

$rem
job_type = freq
basis = def2-tzvppd
max_scf_cycles = 200
gen_scfman = true
xc_grid = 3
scf_algorithm = diis
resp_charges = true
symmetry = false
sym_ignore = true
method = wb97xv
geom_opt_max_cycles = 200
solvent_method = smd
ideriv = 1
thresh = 14
$end

$smx
solvent other
$end
--------------------------------------------------------------

   16    -350.0971275323      7.64e-09  Convergence criterion met
 Total energy in the final basis set =     -350.0998758626
    6    -350.0971271698      6.62e-09  Convergence criterion met
 Total energy in the final basis set =     -350.0998757169
    7    -350.0971273008      5.25e-09  Convergence criterion met
 Total energy in the final basis set =     -350.0998754128
    7    -350.0971276703      5.43e-09  Convergence criterion met
 Total energy in the final basis set =     -350.0998758055
    7    -350.0971271404      7.10e-09  Convergence criterion met
 Total energy in the final basis set =     -350.0998756661
    7    -350.0971265790      9.51e-09  Convergence criterion met
 Total energy in the final basis set =     -350.0998746272
    8    -350.0971265694      3.57e-09  Convergence criterion met
 Total energy in the final basis set =     -350.0998751708
    8    -350.0971257472      5.15e-09  Convergence criterion met
 Total energy in the final basis set =     -350.0998754999
    8    -350.0971271248      4.29e-09  Convergence criterion met
 Total energy in the final basis set =     -350.0998756853
    7    -350.0971274625      6.51e-09  Convergence criterion met
 Total energy in the final basis set =     -350.0998758147
    7    -350.0971275243      6.44e-09  Convergence criterion met
 Total energy in the final basis set =     -350.0998758326
    6    -350.0971268911      7.38e-09  Convergence criterion met
 Total energy in the final basis set =     -350.0998756259
    7    -350.0971277010      9.30e-09  Convergence criterion met
 Total energy in the final basis set =     -350.0998756234
    7    -350.0971268090      8.43e-09  Convergence criterion met
 Total energy in the final basis set =     -350.0998754537
    7    -350.0971273809      9.09e-09  Convergence criterion met
 Total energy in the final basis set =     -350.0998753922

                    Orbital Energies (a.u.)
 --------------------------------------------------------------

 Alpha MOs
 -- Occupied --
-19.1793 -19.1410 -19.1380 -10.3750 -10.2697 -10.1645  -2.0662  -1.1877
 -1.0803  -1.0481  -0.8246  -0.6812  -0.5999  -0.5581  -0.5451  -0.5338
 -0.4991  -0.4594  -0.4248  -0.3980  -0.3819  -0.3592  -0.3482  -0.3366
 -0.2208

          Ground-State Mulliken Net Atomic Charges

     Atom                 Charge (a.u.)
  ----------------------------------------
      1 O                    -0.803235
      2 C                     0.489025
      3 O                    -0.291776
      4 O                    -0.814745
      5 Li                    0.858058
      6 C                     0.335715
      7 C                    -1.188621
      8 H                     0.100790
      9 H                     0.065975
     10 H                     0.148615
     11 H                     0.100199
  ----------------------------------------
  Sum of atomic charges =    -1.000000

                    Cartesian Multipole Moments
 -----------------------------------------------------------------
    Charge (ESU x 10^10)
                -4.8032
    Dipole Moment (Debye)
         X      -9.6648      Y      -3.2861      Z       4.6603
       Tot      11.2217
    Quadrupole Moments (Debye-Ang)
        XX     -42.2831     XY     -12.8915     YY     -49.6206
        XZ     -10.5511     YZ       0.7391     ZZ     -46.4235

             Standard Nuclear Orientation (Angstroms)
    I     Atom           X                Y                Z
 ----------------------------------------------------------------
    1      O      -0.6476449777     0.0451305667     1.1759139822
    2      C      -0.6654557126    -0.2666753180    -0.0616222150
    3      O       0.4346119692    -0.5211131676    -0.7333803419
    4      O      -1.7781040451    -0.3548452790    -0.6856962061
    5      Li     -2.4968088537     0.1498919248     0.9551905439
    6      C       1.8207509203    -0.1583562663    -0.0393154973
    7      C       2.2240249086     1.2262262684    -0.1247135739
    8      H       1.6582521617    -0.5527417940     0.9645956636
    9      H       2.4399260016    -0.8503729336    -0.6161557163
   10      H       3.0396967041     1.4752110615    -0.8042558204
   11      H       2.1736930080     1.8319287364     0.7806303305
 ----------------------------------------------------------------

 Frequency:      -393.20                  79.20                 100.16
 Force Cnst:      0.1678                 0.0197                 0.0236
 Red. Mass:       1.8426                 5.3373                 3.9866
 IR Intens:      649.746                 37.688                 15.378
 Frequency:       148.46                 239.15                 358.46
 Force Cnst:      0.0999                 0.0726                 0.1701
 Red. Mass:       7.6942                 2.1559                 2.2464
 IR Intens:       54.238                 42.560                190.030
 Frequency:       371.44                 445.10                 558.78
 Force Cnst:      0.1222                 0.6134                 1.2605
 Red. Mass:       1.5027                 5.2549                 6.8522
 IR Intens:       54.652                 25.019                220.091
 Frequency:       592.81                 700.88                 762.46
 Force Cnst:      1.4904                 1.2712                 3.8312
 Red. Mass:       7.1983                 4.3922                11.1855
 IR Intens:      383.078                107.845                 88.318
 Frequency:       819.32                 855.17                1049.09
 Force Cnst:      0.5288                 4.6059                 3.4418
 Red. Mass:       1.3370                10.6896                 5.3077
 IR Intens:        8.789                 46.437                183.090
 Frequency:      1123.01                1176.75                1305.16
 Force Cnst:      2.2549                 1.4051                 1.1137
 Red. Mass:       3.0347                 1.7222                 1.1096
 IR Intens:      188.395                  2.342                 76.216
 Frequency:      1313.00                1437.48                1479.11
 Force Cnst:      1.2711                 1.3526                 2.0399
 Red. Mass:       1.2514                 1.1110                 1.5826
 IR Intens:      104.261                  2.808                115.485
 Frequency:      1481.12                1531.94                3062.44
 Force Cnst:      4.0588                13.7550                 5.8416
 Red. Mass:       3.1402                 9.9478                 1.0572
 IR Intens:      834.374                835.975                133.158
 Frequency:      3094.40                3125.27                3161.07
 Force Cnst:      5.9523                 6.3708                 6.5584
 Red. Mass:       1.0551                 1.1071                 1.1140
 IR Intens:       43.893                 11.430                141.137

 STANDARD THERMODYNAMIC QUANTITIES AT   298.15 K  AND     1.00 ATM

   This Molecule has  1 Imaginary Frequencies
   Zero point vibrational energy:       43.418 kcal/mol

   Atom    1 Element O  Has Mass   15.99491
   Atom    2 Element C  Has Mass   12.00000
   Atom    3 Element O  Has Mass   15.99491
   Atom    4 Element O  Has Mass   15.99491
   Atom    5 Element Li Has Mass    7.01600
   Atom    6 Element C  Has Mass   12.00000
   Atom    7 Element C  Has Mass   12.00000
   Atom    8 Element H  Has Mass    1.00783
   Atom    9 Element H  Has Mass    1.00783
   Atom   10 Element H  Has Mass    1.00783
   Atom   11 Element H  Has Mass    1.00783
   Molecular Mass:    95.032050 amu
   Principal axes and moments of inertia in amu*Bohr^2:
                             1           2           3
    Eigenvalues --      251.98563   922.36698  1048.00206
          X               0.97899    -0.00632    -0.20381
          Y               0.18510     0.44684     0.87525
          Z              -0.08554     0.89459    -0.43863
   Rotational Symmetry Number is   1
   The Molecule is an Asymmetric Top
   Translational Enthalpy:        0.889 kcal/mol
   Rotational Enthalpy:           0.889 kcal/mol
   Vibrational Enthalpy:         46.190 kcal/mol
   gas constant (RT):             0.592 kcal/mol
   Translational Entropy:        39.566  cal/mol.K
   Rotational Entropy:           26.990  cal/mol.K
   Vibrational Entropy:          17.051  cal/mol.K

   Total Enthalpy:               48.560 kcal/mol
   Total Entropy:                83.607  cal/mol.K

 Total job time:  3206.83s(wall), 82013.79s(cpu)
        *  Thank you very much for using Q-Chem.  Have a nice day.  *
