 Q-Chem 5.2, Q-Chem, Inc., Pleasanton, CA (2019)
 Q-Chem 5.2.2 for Intel X86 EM64T Linux

User input:
--------------------------------------------------------------
$molecule
0 2
O      0.2915310231     -1.2174781732      0.6306762183
C     -0.7303284103     -0.4641276607      0.3877348441
C      1.5864709627     -0.3841808833     -0.2065268490
O     -1.7394665105     -0.7261999243     -0.3574613769
O     -0.3555800445      0.8939615958      0.3708939799
C      1.1123580591      0.9900869668      0.1072872325
Li     -1.8903415573      1.0345700879     -0.8440078107
H      1.5172606642     -0.6967586482     -1.2451908270
H      2.4672232318     -0.7409572507      0.3135270773
H      1.2216299154      1.6908447493     -0.7212636277
H      1.5697926664      1.3969591406      1.0098011392
$end

$rem
job_type = freq
basis = def2-tzvppd
max_scf_cycles = 200
gen_scfman = true
xc_grid = 3
scf_algorithm = diis
resp_charges = true
symmetry = false
sym_ignore = true
method = wb97xv
solvent_method = smd
ideriv = 1
thresh = 14
$end

$smx
solvent other
$end
--------------------------------------------------------------

   18    -349.9293598740      3.75e-09  Convergence criterion met
 Total energy in the final basis set =     -349.9321460212
   15    -349.9293620562      7.75e-09  Convergence criterion met
 Total energy in the final basis set =     -349.9321462372
   15    -349.9293578842      7.88e-09  Convergence criterion met
 Total energy in the final basis set =     -349.9321459887
   15    -349.9293603478      7.71e-09  Convergence criterion met
 Total energy in the final basis set =     -349.9321456747
   15    -349.9293582414      7.81e-09  Convergence criterion met
 Total energy in the final basis set =     -349.9321452003
   15    -349.9293590988      7.84e-09  Convergence criterion met
 Total energy in the final basis set =     -349.9321459543
   15    -349.9293605118      7.68e-09  Convergence criterion met
 Total energy in the final basis set =     -349.9321459477
   15    -349.9293571303      7.85e-09  Convergence criterion met
 Total energy in the final basis set =     -349.9321456226
   15    -349.9293593837      7.77e-09  Convergence criterion met
 Total energy in the final basis set =     -349.9321456213
   15    -349.9293594192      7.79e-09  Convergence criterion met
 Total energy in the final basis set =     -349.9321458749
   15    -349.9293599449      7.77e-09  Convergence criterion met
 Total energy in the final basis set =     -349.9321457804
   15    -349.9293592837      7.79e-09  Convergence criterion met
 Total energy in the final basis set =     -349.9321458338
   15    -349.9293601357      7.78e-09  Convergence criterion met
 Total energy in the final basis set =     -349.9321458784
   15    -349.9293592654      7.78e-09  Convergence criterion met
 Total energy in the final basis set =     -349.9321455428
   15    -349.9293595690      7.79e-09  Convergence criterion met
 Total energy in the final basis set =     -349.9321455830

                    Orbital Energies (a.u.)
 --------------------------------------------------------------

 Alpha MOs
 -- Occupied --
-19.2367 -19.2118 -19.1655 -10.3831 -10.3159 -10.2944  -2.0986  -1.2288
 -1.1137  -1.0988  -0.8870  -0.7509  -0.6701  -0.6147  -0.6018  -0.5743
 -0.5458  -0.5075  -0.4952  -0.4717  -0.4304  -0.4116  -0.3923  -0.3734
 -0.1977

 Beta MOs
 -- Occupied --
-19.2358 -19.2112 -19.1620 -10.3774 -10.3154 -10.2888  -2.0983  -1.2227
 -1.1109  -1.0905  -0.8759  -0.7428  -0.6594  -0.6088  -0.5907  -0.5672
 -0.5361  -0.4945  -0.4913  -0.4666  -0.4247  -0.4083  -0.3784  -0.3687

          Ground-State Mulliken Net Atomic Charges

     Atom                 Charge (a.u.)    Spin (a.u.)
  --------------------------------------------------------
      1 O                    -0.264414      -0.187465
      2 C                     0.316857       0.686193
      3 C                    -0.185733       0.427207
      4 O                    -0.766695       0.080919
      5 O                    -0.448045      -0.079219
      6 C                     0.102080       0.046743
      7 Li                    0.867381       0.013765
      8 H                     0.114018       0.007997
      9 H                     0.118869      -0.001218
     10 H                     0.080807       0.000172
     11 H                     0.064876       0.004907
  --------------------------------------------------------
  Sum of atomic charges =    -0.000000

                    Cartesian Multipole Moments
 -----------------------------------------------------------------
    Charge (ESU x 10^10)
                -0.0000
    Dipole Moment (Debye)
         X      -0.0917      Y       7.3502      Z      -3.8016
       Tot       8.2756
    Quadrupole Moments (Debye-Ang)
        XX     -30.4777     XY      -9.9935     YY     -38.1028
        XZ       4.9192     YZ      -3.6526     ZZ     -35.6788

             Standard Nuclear Orientation (Angstroms)
    I     Atom           X                Y                Z
 ----------------------------------------------------------------
    1      O       0.2915310231    -1.2174781732     0.6306762183
    2      C      -0.7303284103    -0.4641276607     0.3877348441
    3      C       1.5864709627    -0.3841808833    -0.2065268490
    4      O      -1.7394665105    -0.7261999243    -0.3574613769
    5      O      -0.3555800445     0.8939615958     0.3708939799
    6      C       1.1123580591     0.9900869668     0.1072872325
    7      Li     -1.8903415573     1.0345700879    -0.8440078107
    8      H       1.5172606642    -0.6967586482    -1.2451908270
    9      H       2.4672232318    -0.7409572507     0.3135270773
   10      H       1.2216299154     1.6908447493    -0.7212636277
   11      H       1.5697926664     1.3969591406     1.0098011392
 ----------------------------------------------------------------

 Frequency:     -1212.55                  98.14                 144.91
 Force Cnst:     10.1912                 0.0168                 0.0645
 Red. Mass:      11.7646                 2.9603                 5.2115
 IR Intens:     3404.825                 34.785                 30.941
 Frequency:       189.70                 322.46                 495.27
 Force Cnst:      0.0810                 0.4634                 1.0576
 Red. Mass:       3.8214                 7.5647                 7.3179
 IR Intens:       21.789                 88.323                105.834
 Frequency:       558.52                 625.38                 663.15
 Force Cnst:      1.4493                 0.9553                 1.3940
 Red. Mass:       7.8856                 4.1458                 5.3800
 IR Intens:       33.854                 51.770                 28.290
 Frequency:       727.82                 803.66                 849.45
 Force Cnst:      1.8208                 0.8044                 1.7136
 Red. Mass:       5.8340                 2.1138                 4.0308
 IR Intens:       58.491                 15.505                107.245
 Frequency:       881.01                 913.34                1009.80
 Force Cnst:      1.1657                 0.7652                 0.7888
 Red. Mass:       2.5490                 1.5569                 1.3130
 IR Intens:       39.259                 67.182                102.762
 Frequency:      1085.41                1156.93                1199.54
 Force Cnst:      1.8117                 1.1085                 4.2155
 Red. Mass:       2.6101                 1.4056                 4.9725
 IR Intens:       87.541                  5.096                230.153
 Frequency:      1243.74                1365.56                1473.70
 Force Cnst:      1.1312                 1.4418                 1.4407
 Red. Mass:       1.2412                 1.3123                 1.1259
 IR Intens:       63.615                 93.893                 17.159
 Frequency:      1507.16                1526.01                3102.30
 Force Cnst:      1.7487                 7.7339                 5.9958
 Red. Mass:       1.3066                 5.6368                 1.0574
 IR Intens:       73.176                581.231                 44.330
 Frequency:      3149.72                3162.01                3250.02
 Force Cnst:      6.2256                 6.5018                 6.9427
 Red. Mass:       1.0651                 1.1037                 1.1156
 IR Intens:        3.661                 23.201                  8.763

 STANDARD THERMODYNAMIC QUANTITIES AT   298.15 K  AND     1.00 ATM

   This Molecule has  1 Imaginary Frequencies
   Zero point vibrational energy:       45.038 kcal/mol

   Atom    1 Element O  Has Mass   15.99491
   Atom    2 Element C  Has Mass   12.00000
   Atom    3 Element C  Has Mass   12.00000
   Atom    4 Element O  Has Mass   15.99491
   Atom    5 Element O  Has Mass   15.99491
   Atom    6 Element C  Has Mass   12.00000
   Atom    7 Element Li Has Mass    7.01600
   Atom    8 Element H  Has Mass    1.00783
   Atom    9 Element H  Has Mass    1.00783
   Atom   10 Element H  Has Mass    1.00783
   Atom   11 Element H  Has Mass    1.00783
   Molecular Mass:    95.032050 amu
   Principal axes and moments of inertia in amu*Bohr^2:
                             1           2           3
    Eigenvalues --      328.90337   568.54117   774.42335
          X               0.98849    -0.05680    -0.14024
          Y               0.07743     0.98620     0.14632
          Z               0.13000    -0.15549     0.97925
   Rotational Symmetry Number is   1
   The Molecule is an Asymmetric Top
   Translational Enthalpy:        0.889 kcal/mol
   Rotational Enthalpy:           0.889 kcal/mol
   Vibrational Enthalpy:         47.258 kcal/mol
   gas constant (RT):             0.592 kcal/mol
   Translational Entropy:        39.566  cal/mol.K
   Rotational Entropy:           26.473  cal/mol.K
   Vibrational Entropy:          12.985  cal/mol.K

   Total Enthalpy:               49.628 kcal/mol
   Total Entropy:                79.024  cal/mol.K

 Total job time:  5699.50s(wall), 146115.10s(cpu)
        *  Thank you very much for using Q-Chem.  Have a nice day.  *
