 Q-Chem 5.2, Q-Chem, Inc., Pleasanton, CA (2019)
 Q-Chem 5.2.2 for Intel X86 EM64T Linux

User input:
--------------------------------------------------------------
$molecule
1 1
C      0.1200291637      4.1628651696      0.1357149666
C      1.3437141778      4.9041354413      0.3505768930
O      1.5475550705      3.4534369007      0.0815922108
C      1.8652784796      2.5646665299      1.2105175431
O      2.2404567952      3.1015876209      2.2515095653
O      1.7291328026      1.3759969662      0.9332724528
Li      2.3569323303      1.1811043677      2.8017789312
H     -0.4364696167      3.8059532231      0.9934262555
H     -0.3110916115      4.0849305965     -0.8515049658
H      1.6170241326      5.1842359505      1.3600817599
H      1.7697157471      5.4857335823     -0.4581507529
O     -1.5223826220      5.9827822809      0.4087421822
C     -1.9696834802      5.9506920919      1.6084697264
O     -1.6701218899      5.0643776844      2.4706304592
O     -2.8049667580      6.9092731030      1.9686630142
Li     -2.8159350003      6.0163950753      3.6127145495
Li     -2.5813177207      7.5231334156      0.2192552091
$end

$rem
job_type = freq
basis = def2-tzvppd
max_scf_cycles = 200
gen_scfman = true
xc_grid = 3
scf_algorithm = diis
resp_charges = true
symmetry = false
sym_ignore = true
method = wb97xv
solvent_method = smd
ideriv = 1
thresh = 14
$end

$smx
solvent other
$end
--------------------------------------------------------------

   14    -628.8644721016      9.69e-09  Convergence criterion met
 Total energy in the final basis set =     -628.8685738750
   11    -628.8644696516      3.60e-09  Convergence criterion met
 Total energy in the final basis set =     -628.8685729314
   11    -628.8644727090      3.57e-09  Convergence criterion met
 Total energy in the final basis set =     -628.8685729712
   11    -628.8644701222      3.57e-09  Convergence criterion met
 Total energy in the final basis set =     -628.8685732810
   11    -628.8644731925      3.64e-09  Convergence criterion met
 Total energy in the final basis set =     -628.8685735762
   11    -628.8644694574      3.56e-09  Convergence criterion met
 Total energy in the final basis set =     -628.8685723230
   11    -628.8644721891      3.59e-09  Convergence criterion met
 Total energy in the final basis set =     -628.8685728607
   11    -628.8644729219      3.60e-09  Convergence criterion met
 Total energy in the final basis set =     -628.8685737582
   11    -628.8644719248      3.64e-09  Convergence criterion met
 Total energy in the final basis set =     -628.8685737609
   11    -628.8644721062      3.59e-09  Convergence criterion met
 Total energy in the final basis set =     -628.8685738793
   11    -628.8644720370      3.64e-09  Convergence criterion met
 Total energy in the final basis set =     -628.8685738111
   11    -628.8644720855      3.64e-09  Convergence criterion met
 Total energy in the final basis set =     -628.8685738198
   11    -628.8644719641      3.58e-09  Convergence criterion met
 Total energy in the final basis set =     -628.8685737772
   11    -628.8644719343      3.59e-09  Convergence criterion met
 Total energy in the final basis set =     -628.8685737536
   11    -628.8644721054      3.60e-09  Convergence criterion met
 Total energy in the final basis set =     -628.8685738331

                    Orbital Energies (a.u.)
 --------------------------------------------------------------

 Alpha MOs
 -- Occupied --
-19.3468 -19.2384 -19.2348 -19.1772 -19.1746 -19.1712 -10.4736 -10.4041
-10.3813 -10.3709  -2.1465  -2.0937  -2.0930  -1.3125  -1.2333  -1.2110
 -1.1678  -1.0907  -1.0760  -0.9416  -0.8020  -0.7463  -0.6758  -0.6530
 -0.6312  -0.6218  -0.6017  -0.5818  -0.5692  -0.5665  -0.5611  -0.5438
 -0.5298  -0.5009  -0.4765  -0.4380  -0.4354  -0.4332  -0.4015  -0.3893
 -0.3871  -0.3681

          Ground-State Mulliken Net Atomic Charges

     Atom                 Charge (a.u.)
  ----------------------------------------
      1 C                     0.373534
      2 C                     0.187042
      3 O                    -0.063584
      4 C                     0.829730
      5 O                    -0.718677
      6 O                    -0.693903
      7 Li                    0.887145
      8 H                     0.022456
      9 H                     0.022638
     10 H                     0.075475
     11 H                     0.004599
     12 O                    -0.856102
     13 C                     1.128728
     14 O                    -0.855899
     15 O                    -1.036081
     16 Li                    0.845351
     17 Li                    0.847548
  ----------------------------------------
  Sum of atomic charges =     1.000000

                    Cartesian Multipole Moments
 -----------------------------------------------------------------
    Charge (ESU x 10^10)
                 4.8032
    Dipole Moment (Debye)
         X      -0.5580      Y      22.2758      Z      10.0171
       Tot      24.4308
    Quadrupole Moments (Debye-Ang)
        XX     -23.3542     XY     -38.2942     YY      89.1147
        XZ       1.5063     YZ      22.2412     ZZ     -11.9606

             Standard Nuclear Orientation (Angstroms)
    I     Atom           X                Y                Z
 ----------------------------------------------------------------
    1      C       0.1200291637     4.1628651696     0.1357149666
    2      C       1.3437141778     4.9041354413     0.3505768930
    3      O       1.5475550705     3.4534369007     0.0815922108
    4      C       1.8652784796     2.5646665299     1.2105175431
    5      O       2.2404567952     3.1015876209     2.2515095653
    6      O       1.7291328026     1.3759969662     0.9332724528
    7      Li      2.3569323303     1.1811043677     2.8017789312
    8      H      -0.4364696167     3.8059532231     0.9934262555
    9      H      -0.3110916115     4.0849305965    -0.8515049658
   10      H       1.6170241326     5.1842359505     1.3600817599
   11      H       1.7697157471     5.4857335823    -0.4581507529
   12      O      -1.5223826220     5.9827822809     0.4087421822
   13      C      -1.9696834802     5.9506920919     1.6084697264
   14      O      -1.6701218899     5.0643776844     2.4706304592
   15      O      -2.8049667580     6.9092731030     1.9686630142
   16      Li     -2.8159350003     6.0163950753     3.6127145495
   17      Li     -2.5813177207     7.5231334156     0.2192552091
 ----------------------------------------------------------------

 Frequency:       -43.07                  24.19                  33.33
 Force Cnst:      0.0103                 0.0036                 0.0067
 Red. Mass:       9.4416                10.5863                10.2296
 IR Intens:      140.747                 29.739                  2.660
 Frequency:        37.06                  48.15                  95.57
 Force Cnst:      0.0062                 0.0136                 0.0421
 Red. Mass:       7.7123                 9.9212                 7.8267
 IR Intens:       24.508                 22.938                  0.206
 Frequency:       123.83                 134.38                 148.85
 Force Cnst:      0.0452                 0.0939                 0.0675
 Red. Mass:       4.9997                 8.8241                 5.1683
 IR Intens:      114.893                106.880                108.193
 Frequency:       166.49                 201.34                 246.36
 Force Cnst:      0.1442                 0.1066                 0.1420
 Red. Mass:       8.8322                 4.4640                 3.9711
 IR Intens:        1.391                 69.556                 74.035
 Frequency:       314.19                 340.53                 389.20
 Force Cnst:      0.2939                 0.5117                 0.8012
 Red. Mass:       5.0532                 7.4891                 8.9773
 IR Intens:        3.674                169.197                305.237
 Frequency:       442.19                 452.20                 532.87
 Force Cnst:      0.8657                 0.9918                 1.3325
 Red. Mass:       7.5148                 8.2320                 7.9646
 IR Intens:      183.711                 31.850                135.971
 Frequency:       541.19                 542.87                 635.19
 Force Cnst:      1.3631                 1.2934                 1.2755
 Red. Mass:       7.8994                 7.4488                 5.3655
 IR Intens:      286.223                108.352                 30.428
 Frequency:       717.14                 773.91                 806.03
 Force Cnst:      4.5083                 5.1707                 0.7297
 Red. Mass:      14.8784                14.6530                 1.9063
 IR Intens:       38.072                 68.989                 10.811
 Frequency:       829.28                 839.93                 865.97
 Force Cnst:      2.9676                 0.8985                 5.5823
 Red. Mass:       7.3240                 2.1616                12.6344
 IR Intens:      284.797                143.469                 36.561
 Frequency:       879.64                1056.24                1069.63
 Force Cnst:      3.5423                 0.6826                10.0448
 Red. Mass:       7.7700                 1.0385                14.9014
 IR Intens:      218.546                  3.539                 34.478
 Frequency:      1145.93                1166.35                1216.20
 Force Cnst:      1.0270                 1.0944                 1.2054
 Red. Mass:       1.3274                 1.3654                 1.3831
 IR Intens:       13.567                 15.927                  3.976
 Frequency:      1228.25                1331.27                1371.63
 Force Cnst:      1.1597                 1.9226                 9.5274
 Red. Mass:       1.3047                 1.8412                 8.5951
 IR Intens:        9.718                 13.118                518.814
 Frequency:      1406.61                1480.45                1524.50
 Force Cnst:     14.5779                 1.4030                 1.9787
 Red. Mass:      12.5055                 1.0865                 1.4450
 IR Intens:      865.132                 23.056                  3.993
 Frequency:      1572.32                1813.83                3186.12
 Force Cnst:     17.7159                24.6674                 6.3030
 Red. Mass:      12.1628                12.7256                 1.0538
 IR Intens:      907.230                874.405                  2.047
 Frequency:      3194.79                3292.02                3328.47
 Force Cnst:      6.3625                 7.1732                 7.3523
 Red. Mass:       1.0580                 1.1234                 1.1264
 IR Intens:       12.649                  5.387                 30.425

 STANDARD THERMODYNAMIC QUANTITIES AT   298.15 K  AND     1.00 ATM

   This Molecule has  1 Imaginary Frequencies
   Zero point vibrational energy:       59.394 kcal/mol

   Atom    1 Element C  Has Mass   12.00000
   Atom    2 Element C  Has Mass   12.00000
   Atom    3 Element O  Has Mass   15.99491
   Atom    4 Element C  Has Mass   12.00000
   Atom    5 Element O  Has Mass   15.99491
   Atom    6 Element O  Has Mass   15.99491
   Atom    7 Element Li Has Mass    7.01600
   Atom    8 Element H  Has Mass    1.00783
   Atom    9 Element H  Has Mass    1.00783
   Atom   10 Element H  Has Mass    1.00783
   Atom   11 Element H  Has Mass    1.00783
   Atom   12 Element O  Has Mass   15.99491
   Atom   13 Element C  Has Mass   12.00000
   Atom   14 Element O  Has Mass   15.99491
   Atom   15 Element O  Has Mass   15.99491
   Atom   16 Element Li Has Mass    7.01600
   Atom   17 Element Li Has Mass    7.01600
   Molecular Mass:   169.048780 amu
   Principal axes and moments of inertia in amu*Bohr^2:
                             1           2           3
    Eigenvalues --      876.46709  4237.58832  4748.22937
          X               0.72758    -0.20095     0.65594
          Y              -0.68322    -0.29868     0.66634
          Z              -0.06201     0.93296     0.35460
   Rotational Symmetry Number is   1
   The Molecule is an Asymmetric Top
   Translational Enthalpy:        0.889 kcal/mol
   Rotational Enthalpy:           0.889 kcal/mol
   Vibrational Enthalpy:         66.253 kcal/mol
   gas constant (RT):             0.592 kcal/mol
   Translational Entropy:        41.283  cal/mol.K
   Rotational Entropy:           31.245  cal/mol.K
   Vibrational Entropy:          49.748  cal/mol.K

   Total Enthalpy:               68.623 kcal/mol
   Total Entropy:               122.276  cal/mol.K

 Total job time:  26368.01s(wall), 646487.31s(cpu)
        *  Thank you very much for using Q-Chem.  Have a nice day.  *
