 Q-Chem 5.2, Q-Chem, Inc., Pleasanton, CA (2019)
 Q-Chem 5.2.0 for Intel X86 EM64T Linux

User input:
--------------------------------------------------------------
$molecule
0 2
O      0.3173894239     -1.2763450240      0.0584897232
C     -0.7361060776     -0.4468645479      0.2398657310
C      1.5710374502     -0.4775429278     -0.0532307055
O     -1.7767065369     -0.5268982419     -0.5043610280
O     -0.3426820240      0.7445880710      0.6988883983
C      1.1841065368      0.9572628359     -0.1139118564
Li     -2.0400850624      1.2713275544     -0.1684825301
H      2.0606959524     -0.8304834310     -0.9610332679
H      2.1818513236     -0.7094514035      0.8208425151
H      0.9584069033      1.3563881637     -1.0998760543
H      1.7034271107      1.6473989511      0.5402600743
$end

$rem
job_type = freq
basis = def2-tzvppd
max_scf_cycles = 500
gen_scfman = true
xc_grid = 3
scf_algorithm = diis
resp_charges = true
symmetry = false
sym_ignore = true
method = wb97xv
geom_opt_max_cycles = 200
solvent_method = smd
ideriv = 1
thresh = 14
$end

$smx
solvent other
$end
--------------------------------------------------------------

   18    -349.9295689488      6.00e-09  Convergence criterion met
 Total energy in the final basis set =     -349.9324415510
    9    -349.9295706517      6.63e-09  Convergence criterion met
 Total energy in the final basis set =     -349.9324410421
   10    -349.9295661571      8.35e-09  Convergence criterion met
 Total energy in the final basis set =     -349.9324409559
    9    -349.9295684092      7.67e-09  Convergence criterion met
 Total energy in the final basis set =     -349.9324409757
    9    -349.9295682386      9.84e-09  Convergence criterion met
 Total energy in the final basis set =     -349.9324408631
    9    -349.9295679308      4.31e-09  Convergence criterion met
 Total energy in the final basis set =     -349.9324414955
    9    -349.9295697609      6.72e-09  Convergence criterion met
 Total energy in the final basis set =     -349.9324413978
   10    -349.9295658430      5.98e-09  Convergence criterion met
 Total energy in the final basis set =     -349.9324410165
    7    -349.9295680043      9.12e-09  Convergence criterion met
 Total energy in the final basis set =     -349.9324410170
    6    -349.9295682924      8.32e-09  Convergence criterion met
 Total energy in the final basis set =     -349.9324413447
    7    -349.9295692243      5.91e-09  Convergence criterion met
 Total energy in the final basis set =     -349.9324413738
    9    -349.9295682009      9.71e-09  Convergence criterion met
 Total energy in the final basis set =     -349.9324412391
    8    -349.9295690681      7.80e-09  Convergence criterion met
 Total energy in the final basis set =     -349.9324412317
    6    -349.9295688106      9.81e-09  Convergence criterion met
 Total energy in the final basis set =     -349.9324412687
    7    -349.9295685014      8.68e-09  Convergence criterion met
 Total energy in the final basis set =     -349.9324412449

                    Orbital Energies (a.u.)
 --------------------------------------------------------------

 Alpha MOs
 -- Occupied --
-19.2256 -19.2244 -19.1643 -10.3838 -10.3119 -10.3000  -2.0978  -1.2313
 -1.1197  -1.0923  -0.8882  -0.7533  -0.6724  -0.6159  -0.6003  -0.5758
 -0.5440  -0.5053  -0.4947  -0.4667  -0.4410  -0.4133  -0.3905  -0.3724
 -0.1951

 Beta MOs
 -- Occupied --
-19.2245 -19.2236 -19.1607 -10.3782 -10.3114 -10.2949  -2.0975  -1.2247
 -1.1158  -1.0845  -0.8774  -0.7457  -0.6617  -0.6094  -0.5891  -0.5688
 -0.5345  -0.4953  -0.4887  -0.4594  -0.4376  -0.4085  -0.3785  -0.3658

          Ground-State Mulliken Net Atomic Charges

     Atom                 Charge (a.u.)    Spin (a.u.)
  --------------------------------------------------------
      1 O                    -0.193833      -0.085301
      2 C                     0.324365       0.650658
      3 C                    -0.025410       0.058074
      4 O                    -0.769670       0.087861
      5 O                    -0.509676      -0.145826
      6 C                    -0.050914       0.393128
      7 Li                    0.847650       0.029371
      8 H                     0.098231      -0.000651
      9 H                     0.068582       0.004551
     10 H                     0.100720       0.003792
     11 H                     0.109955       0.004343
  --------------------------------------------------------
  Sum of atomic charges =     0.000000

                    Cartesian Multipole Moments
 -----------------------------------------------------------------
    Charge (ESU x 10^10)
                -0.0000
    Dipole Moment (Debye)
         X      -0.1093      Y       6.9137      Z      -0.7017
       Tot       6.9501
    Quadrupole Moments (Debye-Ang)
        XX     -28.0020     XY     -12.4744     YY     -34.7496
        XZ      -0.5927     YZ      -2.9545     ZZ     -39.3654

             Standard Nuclear Orientation (Angstroms)
    I     Atom           X                Y                Z
 ----------------------------------------------------------------
    1      O       0.3173894239    -1.2763450240     0.0584897232
    2      C      -0.7361060776    -0.4468645479     0.2398657310
    3      C       1.5710374502    -0.4775429278    -0.0532307055
    4      O      -1.7767065369    -0.5268982419    -0.5043610280
    5      O      -0.3426820240     0.7445880710     0.6988883983
    6      C       1.1841065368     0.9572628359    -0.1139118564
    7      Li     -2.0400850624     1.2713275544    -0.1684825301
    8      H       2.0606959524    -0.8304834310    -0.9610332679
    9      H       2.1818513236    -0.7094514035     0.8208425151
   10      H       0.9584069033     1.3563881637    -1.0998760543
   11      H       1.7034271107     1.6473989511     0.5402600743
 ----------------------------------------------------------------

 Frequency:     -1249.58                  85.04                 133.50
 Force Cnst:     10.6650                 0.0116                 0.0826
 Red. Mass:      11.5926                 2.7129                 7.8699
 IR Intens:     4014.679                 18.837                 74.366
 Frequency:       171.54                 319.16                 481.65
 Force Cnst:      0.0602                 0.4393                 1.0393
 Red. Mass:       3.4727                 7.3195                 7.6036
 IR Intens:        2.108                 80.693                100.730
 Frequency:       562.05                 629.70                 684.92
 Force Cnst:      1.5164                 0.8449                 2.4959
 Red. Mass:       8.1473                 3.6166                 9.0303
 IR Intens:       53.794                 70.400                 38.830
 Frequency:       738.13                 822.56                 837.77
 Force Cnst:      1.5250                 1.2750                 0.9185
 Red. Mass:       4.7505                 3.1982                 2.2211
 IR Intens:       82.966                 23.739                 62.566
 Frequency:       889.68                 957.63                1034.98
 Force Cnst:      0.7116                 1.2856                 1.0029
 Red. Mass:       1.5259                 2.3793                 1.5890
 IR Intens:       22.266                 15.448                 15.952
 Frequency:      1111.24                1148.75                1213.69
 Force Cnst:      1.5150                 1.0710                 1.7063
 Red. Mass:       2.0823                 1.3775                 1.9660
 IR Intens:       46.464                  5.332                 81.435
 Frequency:      1263.46                1386.74                1464.78
 Force Cnst:      1.5408                 1.9299                 8.3537
 Red. Mass:       1.6383                 1.7033                 6.6082
 IR Intens:       99.722                 67.796                878.786
 Frequency:      1472.79                1509.83                3099.22
 Force Cnst:      1.4434                 1.6709                 5.9934
 Red. Mass:       1.1294                 1.2441                 1.0590
 IR Intens:       22.312                 61.090                 50.306
 Frequency:      3145.49                3161.14                3246.82
 Force Cnst:      6.1975                 6.5016                 6.9252
 Red. Mass:       1.0631                 1.1043                 1.1150
 IR Intens:        1.678                 21.538                  8.081

 STANDARD THERMODYNAMIC QUANTITIES AT   298.15 K  AND     1.00 ATM

   This Molecule has  1 Imaginary Frequencies
   Zero point vibrational energy:       45.135 kcal/mol

   Atom    1 Element O  Has Mass   15.99491
   Atom    2 Element C  Has Mass   12.00000
   Atom    3 Element C  Has Mass   12.00000
   Atom    4 Element O  Has Mass   15.99491
   Atom    5 Element O  Has Mass   15.99491
   Atom    6 Element C  Has Mass   12.00000
   Atom    7 Element Li Has Mass    7.01600
   Atom    8 Element H  Has Mass    1.00783
   Atom    9 Element H  Has Mass    1.00783
   Atom   10 Element H  Has Mass    1.00783
   Atom   11 Element H  Has Mass    1.00783
   Molecular Mass:    95.032050 amu
   Principal axes and moments of inertia in amu*Bohr^2:
                             1           2           3
    Eigenvalues --      312.22476   581.54395   790.49851
          X               0.99625     0.05281    -0.06848
          Y              -0.06156     0.98925    -0.13268
          Z               0.06074     0.13640     0.98879
   Rotational Symmetry Number is   1
   The Molecule is an Asymmetric Top
   Translational Enthalpy:        0.889 kcal/mol
   Rotational Enthalpy:           0.889 kcal/mol
   Vibrational Enthalpy:         47.388 kcal/mol
   gas constant (RT):             0.592 kcal/mol
   Translational Entropy:        39.566  cal/mol.K
   Rotational Entropy:           26.465  cal/mol.K
   Vibrational Entropy:          13.559  cal/mol.K

   Total Enthalpy:               49.758 kcal/mol
   Total Entropy:                79.589  cal/mol.K

 Total job time:  3963.23s(wall), 102576.36s(cpu)
        *  Thank you very much for using Q-Chem.  Have a nice day.  *
