 Q-Chem 5.2, Q-Chem, Inc., Pleasanton, CA (2019)
 Q-Chem 5.2.2 for Intel X86 EM64T Linux

User input:
--------------------------------------------------------------
$molecule
0 2
H      0.1499349052     -0.1708910144      0.9773770374
C      2.3013334408      0.2670142501      0.2404618931
H      2.6081297837      1.1597929842     -0.2959120888
H      2.6286840180      0.2718644717      1.2757999350
C      2.5623153930     -1.0220236657     -0.4927923903
H      2.1753648775     -1.8831135842      0.0549938154
H      2.1278552513     -1.0114454233     -1.4940054146
O      3.9985893263     -1.1135003006     -0.5899392340
C      4.4891497945     -2.1924562709     -1.2361656836
O      3.7045947293     -3.0559646582     -1.7129610394
O      5.7419312510     -2.2675603221     -1.3236734666
Li      5.3422683007     -3.8736672643     -2.2546326084
O      0.6730853592      0.4957803135      0.3961388477
H      0.1640335697      0.5631204845     -0.4723896028
$end

$rem
job_type = freq
basis = def2-tzvppd
max_scf_cycles = 200
gen_scfman = true
xc_grid = 3
scf_algorithm = diis
resp_charges = true
symmetry = false
sym_ignore = true
method = wb97xv
solvent_method = smd
ideriv = 1
thresh = 14
$end

$smx
solvent other
$end
--------------------------------------------------------------

   22    -426.3578147282      6.12e-09  Convergence criterion met
 Total energy in the final basis set =     -426.3629645891
   18    -426.3578145211      4.89e-09  Convergence criterion met
 Total energy in the final basis set =     -426.3629645634
   18    -426.3578147738      4.68e-09  Convergence criterion met
 Total energy in the final basis set =     -426.3629644535
   18    -426.3578147936      4.94e-09  Convergence criterion met
 Total energy in the final basis set =     -426.3629644978
   18    -426.3578143629      4.69e-09  Convergence criterion met
 Total energy in the final basis set =     -426.3629643802
   18    -426.3578145697      4.76e-09  Convergence criterion met
 Total energy in the final basis set =     -426.3629643600
   18    -426.3578146290      4.98e-09  Convergence criterion met
 Total energy in the final basis set =     -426.3629645608
   18    -426.3578154005      4.73e-09  Convergence criterion met
 Total energy in the final basis set =     -426.3629642030
   18    -426.3578143695      4.74e-09  Convergence criterion met
 Total energy in the final basis set =     -426.3629638563
   18    -426.3578143307      4.86e-09  Convergence criterion met
 Total energy in the final basis set =     -426.3629643846
   18    -426.3578148709      4.77e-09  Convergence criterion met
 Total energy in the final basis set =     -426.3629645390
   18    -426.3578148699      4.82e-09  Convergence criterion met
 Total energy in the final basis set =     -426.3629645885
   18    -426.3578145366      4.85e-09  Convergence criterion met
 Total energy in the final basis set =     -426.3629645401
   18    -426.3578142882      4.84e-09  Convergence criterion met
 Total energy in the final basis set =     -426.3629640604
   18    -426.3578143849      4.72e-09  Convergence criterion met
 Total energy in the final basis set =     -426.3629643342

                    Orbital Energies (a.u.)
 --------------------------------------------------------------

 Alpha MOs
 -- Occupied --
-19.3048 -19.2466 -19.1798 -19.1753 -10.4168 -10.3317 -10.3256  -2.0990
 -1.2438  -1.2131  -1.1457  -1.0958  -0.9081  -0.7765  -0.6991  -0.6878
 -0.6146  -0.6139  -0.5976  -0.5787  -0.5555  -0.5430  -0.4913  -0.4878
 -0.4667  -0.4253  -0.4070  -0.3833  -0.3770  -0.1640

 Beta MOs
 -- Occupied --
-19.2999 -19.2460 -19.1798 -19.1753 -10.4167 -10.3284 -10.3256  -2.0990
 -1.2431  -1.2019  -1.1447  -1.0957  -0.9022  -0.7710  -0.6914  -0.6854
 -0.6128  -0.6081  -0.5968  -0.5743  -0.5540  -0.5381  -0.4876  -0.4851
 -0.4652  -0.4245  -0.4064  -0.3833  -0.3768

          Ground-State Mulliken Net Atomic Charges

     Atom                 Charge (a.u.)    Spin (a.u.)
  --------------------------------------------------------
      1 H                     0.171778       0.155386
      2 C                    -0.328189       0.485739
      3 H                     0.017667       0.081614
      4 H                     0.025731       0.074541
      5 C                    -0.201622       0.294495
      6 H                     0.104010      -0.005346
      7 H                     0.115748      -0.010315
      8 O                    -0.086322      -0.094214
      9 C                     0.619372       0.073830
     10 O                    -0.775583      -0.013947
     11 O                    -0.780600      -0.001041
     12 Li                    0.874825       0.000227
     13 O                     0.109984      -0.206602
     14 H                     0.133200       0.165633
  --------------------------------------------------------
  Sum of atomic charges =     0.000000

                    Cartesian Multipole Moments
 -----------------------------------------------------------------
    Charge (ESU x 10^10)
                 0.0000
    Dipole Moment (Debye)
         X       3.3551      Y      -4.4079      Z      -3.2369
       Tot       6.4159
    Quadrupole Moments (Debye-Ang)
        XX     -40.2626     XY     -28.2061     YY     -19.0910
        XZ     -16.1427     YZ      15.0281     ZZ     -35.5538

             Standard Nuclear Orientation (Angstroms)
    I     Atom           X                Y                Z
 ----------------------------------------------------------------
    1      H       0.1499349052    -0.1708910144     0.9773770374
    2      C       2.3013334408     0.2670142501     0.2404618931
    3      H       2.6081297837     1.1597929842    -0.2959120888
    4      H       2.6286840180     0.2718644717     1.2757999350
    5      C       2.5623153930    -1.0220236657    -0.4927923903
    6      H       2.1753648775    -1.8831135842     0.0549938154
    7      H       2.1278552513    -1.0114454233    -1.4940054146
    8      O       3.9985893263    -1.1135003006    -0.5899392340
    9      C       4.4891497945    -2.1924562709    -1.2361656836
   10      O       3.7045947293    -3.0559646582    -1.7129610394
   11      O       5.7419312510    -2.2675603221    -1.3236734666
   12      Li      5.3422683007    -3.8736672643    -2.2546326084
   13      O       0.6730853592     0.4957803135     0.3961388477
   14      H       0.1640335697     0.5631204845    -0.4723896028
 ----------------------------------------------------------------

 Frequency:      -989.39                  53.66                  73.23
 Force Cnst:      3.4895                 0.0069                 0.0071
 Red. Mass:       6.0503                 4.0822                 2.2537
 IR Intens:    11170.187                 22.570                  0.486
 Frequency:       118.78                 126.56                 145.11
 Force Cnst:      0.0354                 0.0496                 0.0143
 Red. Mass:       4.2626                 5.2530                 1.1507
 IR Intens:       63.928                 31.396                508.830
 Frequency:       182.33                 284.42                 339.71
 Force Cnst:      0.0921                 0.2396                 0.1534
 Red. Mass:       4.7028                 5.0269                 2.2563
 IR Intens:      112.094                 61.468               1545.093
 Frequency:       381.87                 388.34                 522.97
 Force Cnst:      0.1905                 0.3150                 0.1988
 Red. Mass:       2.2170                 3.5453                 1.2337
 IR Intens:     1727.910                574.314                259.808
 Frequency:       543.80                 623.55                 755.90
 Force Cnst:      1.2807                 1.7842                 2.3944
 Red. Mass:       7.3503                 7.7887                 7.1123
 IR Intens:      253.225                 58.151                 49.088
 Frequency:       763.38                 841.09                 983.93
 Force Cnst:      0.4176                 4.8852                 0.6800
 Red. Mass:       1.2163                11.7206                 1.1921
 IR Intens:      113.238                 64.017                542.997
 Frequency:       990.61                1107.69                1113.58
 Force Cnst:      4.2211                 3.3074                 4.3531
 Red. Mass:       7.3008                 4.5751                 5.9580
 IR Intens:       80.572                 71.998                570.671
 Frequency:      1198.28                1209.71                1296.22
 Force Cnst:      0.9911                 1.1623                 1.0769
 Red. Mass:       1.1716                 1.3480                 1.0879
 IR Intens:       95.073                 32.572                 37.611
 Frequency:      1334.04                1356.42                1447.10
 Force Cnst:      1.1932                 1.6429                 3.4621
 Red. Mass:       1.1380                 1.5156                 2.8060
 IR Intens:      595.376                606.740                544.454
 Frequency:      1472.46                1509.13                1638.19
 Force Cnst:      1.5864                 1.5449                20.2272
 Red. Mass:       1.2418                 1.1513                12.7925
 IR Intens:       27.000                 48.011                874.770
 Frequency:      2004.74                2869.34                3094.54
 Force Cnst:      2.7567                 5.0825                 5.9655
 Red. Mass:       1.1642                 1.0478                 1.0573
 IR Intens:    22409.586               1404.206                  1.190
 Frequency:      3150.97                3160.18                3240.84
 Force Cnst:      6.4995                 6.2120                 6.8963
 Red. Mass:       1.1111                 1.0558                 1.1144
 IR Intens:        6.905                  3.808                  0.642

 STANDARD THERMODYNAMIC QUANTITIES AT   298.15 K  AND     1.00 ATM

   This Molecule has  1 Imaginary Frequencies
   Zero point vibrational energy:       57.644 kcal/mol

   Atom    1 Element H  Has Mass    1.00783
   Atom    2 Element C  Has Mass   12.00000
   Atom    3 Element H  Has Mass    1.00783
   Atom    4 Element H  Has Mass    1.00783
   Atom    5 Element C  Has Mass   12.00000
   Atom    6 Element H  Has Mass    1.00783
   Atom    7 Element H  Has Mass    1.00783
   Atom    8 Element O  Has Mass   15.99491
   Atom    9 Element C  Has Mass   12.00000
   Atom   10 Element O  Has Mass   15.99491
   Atom   11 Element O  Has Mass   15.99491
   Atom   12 Element Li Has Mass    7.01600
   Atom   13 Element O  Has Mass   15.99491
   Atom   14 Element H  Has Mass    1.00783
   Molecular Mass:   113.042620 amu
   Principal axes and moments of inertia in amu*Bohr^2:
                             1           2           3
    Eigenvalues --      223.53825  1935.19003  2126.05843
          X               0.71502     0.69876     0.02180
          Y              -0.59701     0.62653    -0.50104
          Z              -0.36376     0.34524     0.86515
   Rotational Symmetry Number is   1
   The Molecule is an Asymmetric Top
   Translational Enthalpy:        0.889 kcal/mol
   Rotational Enthalpy:           0.889 kcal/mol
   Vibrational Enthalpy:         61.852 kcal/mol
   gas constant (RT):             0.592 kcal/mol
   Translational Entropy:        40.083  cal/mol.K
   Rotational Entropy:           28.310  cal/mol.K
   Vibrational Entropy:          27.410  cal/mol.K

   Total Enthalpy:               64.222 kcal/mol
   Total Entropy:                95.803  cal/mol.K

 Total job time:  13052.68s(wall), 335600.45s(cpu)
        *  Thank you very much for using Q-Chem.  Have a nice day.  *
